 Gaussian 09, Revision E.01,
 Gaussian 09:  ES64L-G09RevE.01 30-Nov-2015

 ---------------------------
 # opt freq apfd/6-31+g(d,p)
 ---------------------------

 ----------
 [No Title]
 ----------
 Symbolic Z-matrix:
 Charge =  1 Multiplicity = 1

 SCF Done:  E(RAPFD) =  -512.078359658     A.U. after   14 cycles
 SCF Done:  E(RAPFD) =  -512.078511749     A.U. after   11 cycles
 SCF Done:  E(RAPFD) =  -512.078524270     A.U. after   10 cycles
 SCF Done:  E(RAPFD) =  -512.078528717     A.U. after    9 cycles
 SCF Done:  E(RAPFD) =  -512.078527591     A.U. after    9 cycles
 SCF Done:  E(RAPFD) =  -512.078529155     A.U. after    9 cycles
 Optimization completed.
    -- Stationary point found.
 Normal termination of Gaussian 09 at Sun May 19 23:47:24 2024.

 ----------------------------------------------------------------------
 #N Geom=AllCheck Guess=TCheck SCRF=Check GenChk RAPFD/6-31+G(d,p) Freq
 ----------------------------------------------------------------------

 Structure from the checkpoint file:  "APFD3HPA.chk"
 ----------
 [No Title]
 ----------
 Charge =  1 Multiplicity = 1

                         Standard orientation:
 ---------------------------------------------------------------------
 Center     Atomic      Atomic             Coordinates (Angstroms)
 Number     Number       Type             X           Y           Z
 ---------------------------------------------------------------------
      1          7           0       -0.510545   -1.352383   -0.000033
      2          6           0       -1.838984   -1.414768   -0.000031
      3          6           0       -2.562791   -0.219094    0.000023
      4          6           0       -1.889872    0.986630    0.000075
      5          6           0       -0.475807    1.022199    0.000072
      6          6           0        0.205815   -0.202409    0.000017
      7          6           0        1.673518   -0.426354    0.000006
      8          8           0        2.148111   -1.534781   -0.000146
      9          8           0        2.354200    0.726890   -0.000067
     10          8           0        0.100645    2.210634    0.000126
     11          1           0        0.057770   -2.204947   -0.000070
     12          1           0       -2.291713   -2.399354   -0.000072
     13          1           0       -3.647008   -0.253414    0.000025
     14          1           0       -2.422847    1.933471    0.000118
     15          1           0        3.311280    0.551183   -0.000172
     16          1           0        1.071407    2.140577    0.000126
 ---------------------------------------------------------------------

 SCF Done:  E(RAPFD) =  -512.078529155     A.U. after    1 cycles

 The electronic state is 1-A.
 Alpha  occ. eigenvalues --  -19.44225 -19.42011 -19.37963 -14.67113 -10.54706
 Alpha  occ. eigenvalues --  -10.50449 -10.48223 -10.47889 -10.43776 -10.43589
 Alpha  occ. eigenvalues --   -1.32990  -1.29126  -1.24837  -1.22679  -1.04104
 Alpha  occ. eigenvalues --   -1.01847  -0.91105  -0.87899  -0.85232  -0.79695
 Alpha  occ. eigenvalues --   -0.76677  -0.72988  -0.70946  -0.68753  -0.68224
 Alpha  occ. eigenvalues --   -0.68128  -0.63604  -0.62142  -0.61261  -0.60338
 Alpha  occ. eigenvalues --   -0.60180  -0.55665  -0.52774  -0.50457  -0.49081
 Alpha  occ. eigenvalues --   -0.45438
 Alpha virt. eigenvalues --   -0.27394  -0.22182  -0.14469  -0.14043  -0.12433
 Alpha virt. eigenvalues --   -0.10248  -0.09876  -0.08467  -0.07930  -0.07315
 Alpha virt. eigenvalues --   -0.05045  -0.04418  -0.04333  -0.03526  -0.03233

 Mulliken charges:
               1
     1  N   -0.151041
     2  C   -0.216990
     3  C    0.131470
     4  C   -0.001848
     5  C    0.377668
     6  C    0.021856
     7  C    0.329417
     8  O   -0.422257
     9  O   -0.572162
    10  O   -0.483381
    11  H    0.388570
    12  H    0.236675
    13  H    0.236929
    14  H    0.236347
    15  H    0.452836
    16  H    0.435911
 Sum of Mulliken charges =   1.00000

 Dipole moment (field-independent basis, Debye):
    X=             -2.5591    Y=             -1.1234    Z=              0.0001  Tot=              2.7948
 Quadrupole moment (field-independent basis, Debye-Ang):
   XX=            -24.9398   YY=            -44.1557   ZZ=            -56.0642
   XY=              9.7378   XZ=             -0.0003   YZ=              0.0002

  Exact polarizability: 108.966   1.332  93.131  -0.001   0.003  40.468
 Approx polarizability: 164.705   0.735 163.871  -0.002   0.006  58.378

                      1                      2                      3
                      A                      A                      A
 Frequencies --     95.2904               135.7196               227.3894
 Red. masses --     10.3655                 4.5308                 6.3577
 Frc consts  --      0.0555                 0.0492                 0.1937
 IR Inten    --      4.6886                 0.0092                 7.5571

                      4                      5                      6
                      A                      A                      A
 Frequencies --    245.8051               369.7589               414.4234
 Red. masses --      4.7670                 7.7347                 3.3250
 Frc consts  --      0.1697                 0.6231                 0.3365
 IR Inten    --      2.3267                 6.8337                10.5173

                      7                      8                      9
                      A                      A                      A
 Frequencies --    417.0075               546.9025               552.7801
 Red. masses --      6.9942                 2.8681                 6.0171
 Frc consts  --      0.7166                 0.5054                 1.0833
 IR Inten    --     13.5412                 5.8515                 2.8489

                     10                     11                     12
                      A                      A                      A
 Frequencies --    575.1236               590.0683               621.4868
 Red. masses --      6.6432                 1.3788                 1.1044
 Frc consts  --      1.2947                 0.2828                 0.2513
 IR Inten    --     11.6696               119.1331                68.0752

                     13                     14                     15
                      A                      A                      A
 Frequencies --    642.3396               679.7316               760.7133
 Red. masses --      5.1217                 3.0475                 4.5183
 Frc consts  --      1.2451                 0.8296                 1.5405
 IR Inten    --     34.4186                98.6592                14.5592

                     16                     17                     18
                      A                      A                      A
 Frequencies --    784.0865               810.3941               891.7495
 Red. masses --      9.6405                 1.3533                 5.8942
 Frc consts  --      3.4920                 0.5236                 2.7616
 IR Inten    --     22.5787                76.2838                18.6810

                     19                     20                     21
                      A                      A                      A
 Frequencies --    899.1931               978.8276              1021.4951
 Red. masses --      1.2648                 1.3108                 1.3213
 Frc consts  --      0.6025                 0.7400                 0.8123
 IR Inten    --     10.1490                12.8366                 0.0075

                     22                     23                     24
                      A                      A                      A
 Frequencies --   1080.7961              1129.1511              1173.7467
 Red. masses --      2.3199                 2.1161                 2.6832
 Frc consts  --      1.5967                 1.5896                 2.1780
 IR Inten    --     18.1794                13.2297                91.7238

                     25                     26                     27
                      A                      A                      A
 Frequencies --   1193.5899              1259.3975              1278.9687
 Red. masses --      1.3282                 1.3056                 1.4721
 Frc consts  --      1.1149                 1.2201                 1.4188
 IR Inten    --     83.5232                20.1649               236.4414

                     28                     29                     30
                      A                      A                      A
 Frequencies --   1348.3056              1375.7688              1408.3066
 Red. masses --      3.8274                 1.4834                 2.3435
 Frc consts  --      4.0995                 1.6542                 2.7385
 IR Inten    --    145.2111                54.4948                78.7070

                     31                     32                     33
                      A                      A                      A
 Frequencies --   1463.9283              1547.3435              1579.8249
 Red. masses --      5.1189                 3.0641                 2.6840
 Frc consts  --      6.4635                 4.3224                 3.9469
 IR Inten    --     16.2856                44.0810               268.7241

                     34                     35                     36
                      A                      A                      A
 Frequencies --   1650.0627              1700.6830              1861.1072
 Red. masses --      6.1823                 5.5137                10.6573
 Frc consts  --      9.9176                 9.3959                21.7491
 IR Inten    --     25.4848                30.8643               343.3386

                     37                     38                     39
                      A                      A                      A
 Frequencies --   3237.3746              3255.6156              3271.5114
 Red. masses --      1.0927                 1.0952                 1.0987
 Frc consts  --      6.7477                 6.8394                 6.9282
 IR Inten    --      6.4899                 9.7231                20.0026

                     40                     41                     42
                      A                      A                      A
 Frequencies --   3473.9683              3715.7550              3768.8947
 Red. masses --      1.0807                 1.0664                 1.0651
 Frc consts  --      7.6842                 8.6750                 8.9143
 IR Inten    --    192.2403               323.0197               205.0714

 - Thermochemistry -
 -------------------
 Temperature   298.150 Kelvin.  Pressure   1.00000 Atm.
 Atom     1 has atomic number  7 and mass  14.00307

 Molecular mass:   140.03477 amu.
 Principal axes and moments of inertia in atomic units:
                           1         2         3
     Eigenvalues --   788.034461436.467392224.50184
           X            0.99951   0.03131   0.00002
           Y           -0.03131   0.99951  -0.00005
           Z           -0.00003   0.00005   1.00000
 This molecule is an asymmetric top.
 Rotational symmetry number  1.
 Warning -- assumption of classical behavior for rotation
           may cause significant error
 Rotational temperatures (Kelvin)      0.10991     0.06030     0.03894
 Rotational constants (GHZ):           2.29018     1.25637     0.81130
 Zero-point vibrational energy     323197.4 (Joules/Mol)
                                   77.24603 (Kcal/Mol)
 Warning -- explicit consideration of  11 degrees of freedom as
           vibrations may cause significant error
 Vibrational temperatures:    137.10   195.27   327.16   353.66   532.00
          (Kelvin)            596.26   599.98   786.87   795.33   827.47
                              848.98   894.18   924.18   977.98  1094.50
                             1128.12  1165.97  1283.03  1293.74  1408.31
                             1469.70  1555.02  1624.59  1688.76  1717.31
                             1811.99  1840.15  1939.91  1979.42  2026.24
                             2106.26  2226.28  2273.01  2374.07  2446.90
                             2677.71  4657.85  4684.10  4706.97  4998.26
                             5346.14  5422.59

 Zero-point correction=                           0.123099 (Hartree/Particle)
 Thermal correction to Energy=                    0.130998
 Thermal correction to Enthalpy=                  0.131942
 Thermal correction to Gibbs Free Energy=         0.090278
 Sum of electronic and zero-point Energies=           -511.955430
 Sum of electronic and thermal Energies=              -511.947531
 Sum of electronic and thermal Enthalpies=            -511.946587
 Sum of electronic and thermal Free Energies=         -511.988251

                     E (Thermal)             CV                S
                      KCal/Mol        Cal/Mol-Kelvin    Cal/Mol-Kelvin
 Total                   82.203             30.783             87.689
 Electronic               0.000              0.000              0.000
 Translational            0.889              2.981             40.722
 Rotational               0.889              2.981             29.311
 Vibrational             80.425             24.821             17.656
 Vibration     1          0.603              1.953              3.548
 Vibration     2          0.614              1.918              2.863
 Vibration     3          0.651              1.799              1.899
 Vibration     4          0.660              1.770              1.760
 Vibration     5          0.742              1.534              1.081
 Vibration     6          0.778              1.439              0.911
 Vibration     7          0.780              1.433              0.902
 Vibration     8          0.902              1.146              0.551
 Vibration     9          0.908              1.134              0.538
 Vibration    10          0.931              1.085              0.494
 Vibration    11          0.947              1.053              0.467

 Optimization completed.
    -- Stationary point found.
 Normal termination of Gaussian 09 at Sun May 19 23:48:28 2024.
