 Gaussian 09, Revision E.01,
 Gaussian 09:  ES64L-G09RevE.01 30-Nov-2015

 ---------------------------
 # opt freq apfd/6-31+g(d,p)
 ---------------------------

 ----------
 [No Title]
 ----------
 Symbolic Z-matrix:
 Charge =  0 Multiplicity = 1

 SCF Done:  E(RAPFD) =  -511.716844207     A.U. after   15 cycles
 SCF Done:  E(RAPFD) =  -511.717017599     A.U. after   12 cycles
 SCF Done:  E(RAPFD) =  -511.717033045     A.U. after   11 cycles
 SCF Done:  E(RAPFD) =  -511.717038895     A.U. after   10 cycles
 SCF Done:  E(RAPFD) =  -511.717040423     A.U. after   10 cycles
 SCF Done:  E(RAPFD) =  -511.717040249     A.U. after    9 cycles
 SCF Done:  E(RAPFD) =  -511.717040595     A.U. after    9 cycles
 Optimization completed.
    -- Stationary point found.
 Normal termination of Gaussian 09 at Sun May 19 23:27:40 2024.

 ----------------------------------------------------------------------
 #N Geom=AllCheck Guess=TCheck SCRF=Check GenChk RAPFD/6-31+G(d,p) Freq
 ----------------------------------------------------------------------

 Structure from the checkpoint file:  "APFD3HPA.chk"
 ----------
 [No Title]
 ----------
 Charge =  0 Multiplicity = 1

                         Standard orientation:
 ---------------------------------------------------------------------
 Center     Atomic      Atomic             Coordinates (Angstroms)
 Number     Number       Type             X           Y           Z
 ---------------------------------------------------------------------
      1          7           0       -0.439728   -1.448965    0.000046
      2          6           0       -1.761498   -1.477814    0.000035
      3          6           0       -2.546714   -0.312033    0.000005
      4          6           0       -1.925804    0.922299   -0.000013
      5          6           0       -0.523589    0.974457    0.000000
      6          6           0        0.173786   -0.257276    0.000031
      7          6           0        1.646228   -0.225981    0.000053
      8          8           0        2.286597    0.827152   -0.000071
      9          8           0        2.241258   -1.415805   -0.000030
     10          8           0        0.072274    2.168530   -0.000013
     11          1           0       -2.225069   -2.461546    0.000050
     12          1           0       -3.630900   -0.385631   -0.000005
     13          1           0       -2.484080    1.853670   -0.000036
     14          1           0        3.196807   -1.250708   -0.000100
     15          1           0        1.045848    2.006032    0.000005
 ---------------------------------------------------------------------

 SCF Done:  E(RAPFD) =  -511.717040595     A.U. after    1 cycles

 The electronic state is 1-A.
 Alpha  occ. eigenvalues --  -19.26602 -19.23792 -19.21668 -14.39367 -10.37288
 Alpha  occ. eigenvalues --  -10.31082 -10.27480 -10.26047 -10.25031 -10.24722
 Alpha  occ. eigenvalues --   -1.16012  -1.10825  -1.06139  -0.98577  -0.83978
 Alpha  occ. eigenvalues --   -0.80761  -0.71552  -0.66346  -0.65222  -0.57736
 Alpha  occ. eigenvalues --   -0.56672  -0.53283  -0.51377  -0.49516  -0.49271
 Alpha  occ. eigenvalues --   -0.44565  -0.44305  -0.43142  -0.41828  -0.41089
 Alpha  occ. eigenvalues --   -0.39424  -0.35659  -0.32597  -0.31164  -0.28166
 Alpha  occ. eigenvalues --   -0.26297
 Alpha virt. eigenvalues --   -0.07692  -0.02714   0.00520   0.01444   0.02913
 Alpha virt. eigenvalues --    0.03447   0.03942   0.05608   0.05898   0.06334
 Alpha virt. eigenvalues --    0.08461   0.08783   0.09401   0.09949   0.11078

 Mulliken charges:
               1
     1  N   -0.133691
     2  C   -0.236729
     3  C    0.101123
     4  C   -0.013568
     5  C    0.029047
     6  C   -0.022428
     7  C    0.467408
     8  O   -0.549653
     9  O   -0.421123
    10  O   -0.532232
    11  H    0.155357
    12  H    0.171624
    13  H    0.181299
    14  H    0.388990
    15  H    0.414576
 Sum of Mulliken charges =  -0.00000

 Dipole moment (field-independent basis, Debye):
    X=             -1.1887    Y=             -0.4542    Z=              0.0001  Tot=              1.2726
 Quadrupole moment (field-independent basis, Debye-Ang):
   XX=            -43.1529   YY=            -62.0834   ZZ=            -58.1420
   XY=             -2.4537   XZ=              0.0001   YZ=              0.0004

  Exact polarizability: 117.348   3.309  96.395  -0.000  -0.001  45.816
 Approx polarizability: 174.080   8.406 164.096  -0.001  -0.002  65.712

                      1                      2                      3
                      A                      A                      A
 Frequencies --     92.4747               138.8971               250.7831
 Red. masses --      8.5455                 6.1413                 6.3960
 Frc consts  --      0.0431                 0.0698                 0.2370
 IR Inten    --      1.4641                 2.8801                 2.9617

                      4                      5                      6
                      A                      A                      A
 Frequencies --    255.4193               367.0909               435.5358
 Red. masses --      4.9632                 7.9237                 3.8197
 Frc consts  --      0.1908                 0.6291                 0.4269
 IR Inten    --      1.7400                10.7637                 0.5061

                      7                      8                      9
                      A                      A                      A
 Frequencies --    443.2730               529.8711               553.5110
 Red. masses --      9.8826                 5.4663                 3.7398
 Frc consts  --      1.1441                 0.9042                 0.6751
 IR Inten    --      3.5590                 4.4479                 0.5789

                     10                     11                     12
                      A                      A                      A
 Frequencies --    580.9721               612.4781               645.6740
 Red. masses --      7.2637                 1.2448                 6.2745
 Frc consts  --      1.4445                 0.2751                 1.5412
 IR Inten    --      6.0153                76.7471                64.1757

                     13                     14                     15
                      A                      A                      A
 Frequencies --    732.3463               771.2305               813.9044
 Red. masses --      3.3494                 4.5465                 1.1881
 Frc consts  --      1.0584                 1.5933                 0.4637
 IR Inten    --     59.4685                28.5777               117.8174

                     16                     17                     18
                      A                      A                      A
 Frequencies --    820.0709               835.6564               875.5623
 Red. masses --      7.2264                 1.3254                 7.2681
 Frc consts  --      2.8633                 0.5453                 3.2828
 IR Inten    --     33.0814                 1.6602                10.6126

                     19                     20                     21
                      A                      A                      A
 Frequencies --    944.0555              1001.7865              1074.4063
 Red. masses --      1.3759                 1.3412                 2.5234
 Frc consts  --      0.7225                 0.7930                 1.7163
 IR Inten    --      0.0067                 0.8039                 1.0020

                     22                     23                     24
                      A                      A                      A
 Frequencies --   1121.2242              1160.6998              1207.4655
 Red. masses --      3.3868                 1.3567                 1.8406
 Frc consts  --      2.5086                 1.0769                 1.5811
 IR Inten    --     56.7019                 0.2922               362.9834

                     25                     26                     27
                      A                      A                      A
 Frequencies --   1275.3630              1326.5893              1369.1422
 Red. masses --      1.6870                 2.4441                 2.1002
 Frc consts  --      1.6167                 2.5342                 2.3195
 IR Inten    --      1.7646                96.5475                18.5111

                     28                     29                     30
                      A                      A                      A
 Frequencies --   1393.6969              1476.1922              1501.5978
 Red. masses --      2.9635                 3.5126                 3.0253
 Frc consts  --      3.3915                 4.5098                 4.0190
 IR Inten    --     55.4622               182.3374               228.4437

                     31                     32                     33
                      A                      A                      A
 Frequencies --   1515.3061              1636.7141              1664.7291
 Red. masses --      3.0105                 4.3427                 7.4419
 Frc consts  --      4.0728                 6.8542                12.1512
 IR Inten    --     16.9413                25.5146                 5.6915

                     34                     35                     36
                      A                      A                      A
 Frequencies --   1758.2262              3199.0863              3218.7658
 Red. masses --      7.6083                 1.0886                 1.0915
 Frc consts  --     13.8577                 6.5639                 6.6628
 IR Inten    --    364.6215                 7.1237                13.1638

                     37                     38                     39
                      A                      A                      A
 Frequencies --   3235.6514              3418.5177              3804.8429
 Red. masses --      1.0967                 1.0679                 1.0644
 Frc consts  --      6.7647                 7.3531                 9.0786
 IR Inten    --      2.7889               366.2516               117.8580

 - Thermochemistry -
 -------------------
 Temperature   298.150 Kelvin.  Pressure   1.00000 Atm.
 Atom     1 has atomic number  7 and mass  14.00307

 Molecular mass:   139.02694 amu.
 Principal axes and moments of inertia in atomic units:
                           1         2         3
     Eigenvalues --   761.911091422.315182184.22627
           X            1.00000   0.00199   0.00001
           Y           -0.00199   1.00000   0.00001
           Z           -0.00001  -0.00001   1.00000
 This molecule is an asymmetric top.
 Rotational symmetry number  1.
 Warning -- assumption of classical behavior for rotation
           may cause significant error
 Rotational temperatures (Kelvin)      0.11368     0.06090     0.03965
 Rotational constants (GHZ):           2.36870     1.26888     0.82626
 Zero-point vibrational energy     287455.5 (Joules/Mol)
                                   68.70352 (Kcal/Mol)
 Warning -- explicit consideration of  11 degrees of freedom as
           vibrations may cause significant error
 Vibrational temperatures:    133.05   199.84   360.82   367.49   528.16
          (Kelvin)            626.64   637.77   762.37   796.38   835.89
                              881.22   928.98  1053.68  1109.63  1171.03
                             1179.90  1202.32  1259.74  1358.28  1441.35
                             1545.83  1613.19  1669.99  1737.27  1834.96
                             1908.66  1969.89  2005.22  2123.91  2160.46
                             2180.18  2354.86  2395.17  2529.69  4602.77
                             4631.08  4655.37  4918.48  5474.31

 Zero-point correction=                           0.109486 (Hartree/Particle)
 Thermal correction to Energy=                    0.117126
 Thermal correction to Enthalpy=                  0.118070
 Thermal correction to Gibbs Free Energy=         0.076852
 Sum of electronic and zero-point Energies=           -511.607555
 Sum of electronic and thermal Energies=              -511.599915
 Sum of electronic and thermal Enthalpies=            -511.598970
 Sum of electronic and thermal Free Energies=         -511.640189

                     E (Thermal)             CV                S
                      KCal/Mol        Cal/Mol-Kelvin    Cal/Mol-Kelvin
 Total                   73.498             29.508             86.752
 Electronic               0.000              0.000              0.000
 Translational            0.889              2.981             40.700
 Rotational               0.889              2.981             29.250
 Vibrational             71.720             23.546             16.802
 Vibration     1          0.602              1.955              3.607
 Vibration     2          0.615              1.914              2.819
 Vibration     3          0.663              1.761              1.725
 Vibration     4          0.666              1.754              1.693
 Vibration     5          0.740              1.540              1.092
 Vibration     6          0.796              1.393              0.841
 Vibration     7          0.803              1.376              0.816
 Vibration     8          0.885              1.184              0.587
 Vibration     9          0.909              1.132              0.537
 Vibration    10          0.938              1.072              0.484
 Vibration    11          0.972              1.005              0.429

 Optimization completed.
    -- Stationary point found.
 Normal termination of Gaussian 09 at Sun May 19 23:28:42 2024.
