 Gaussian 09, Revision E.01,
 Gaussian 09:  ES64L-G09RevE.01 30-Nov-2015

 -----------------------------
 # opt freq B2PLYP/6-31+g(d,p)
 -----------------------------

 ----------
 [No Title]
 ----------
 Symbolic Z-matrix:
 Charge =  1 Multiplicity = 1

 SCF Done:  E(RB2PLYP) =  -511.506188955     A.U. after   15 cycles
 E2(B2PLYP) =    -0.4960462773D+00 E(B2PLYP) =    -0.51200223523214D+03
 SCF Done:  E(RB2PLYP) =  -511.505126160     A.U. after   12 cycles
 E2(B2PLYP) =    -0.4976561639D+00 E(B2PLYP) =    -0.51200278232420D+03
 SCF Done:  E(RB2PLYP) =  -511.504964289     A.U. after   11 cycles
 E2(B2PLYP) =    -0.4978303861D+00 E(B2PLYP) =    -0.51200279467487D+03
 SCF Done:  E(RB2PLYP) =  -511.504763800     A.U. after   11 cycles
 E2(B2PLYP) =    -0.4980196760D+00 E(B2PLYP) =    -0.51200278347564D+03
 SCF Done:  E(RB2PLYP) =  -511.504987598     A.U. after   11 cycles
 E2(B2PLYP) =    -0.4978192839D+00 E(B2PLYP) =    -0.51200280688240D+03
 Optimization completed.
    -- Stationary point found.
 Normal termination of Gaussian 09 at Sat Dec 14 18:05:10 2024.

 ----------------------------------------------------------------------
 #N Geom=AllCheck Guess=TCheck SCRF=Check GenChk RB2PLYP(FC)/6-31+G(d,p
 ) Freq
 ----------------------------------------------------------------------

 Structure from the checkpoint file:  "B2PLYP3HPA2.chk"
 ----------
 [No Title]
 ----------
 Charge =  1 Multiplicity = 1

                         Standard orientation:
 ---------------------------------------------------------------------
 Center     Atomic      Atomic             Coordinates (Angstroms)
 Number     Number       Type             X           Y           Z
 ---------------------------------------------------------------------
      1          7           0       -0.507503   -1.355000   -0.000042
      2          6           0       -1.841905   -1.423122   -0.000023
      3          6           0       -2.570191   -0.228884    0.000042
      4          6           0       -1.899902    0.982230    0.000087
      5          6           0       -0.484697    1.022573    0.000065
      6          6           0        0.208652   -0.197366   -0.000001
      7          6           0        1.681184   -0.424037   -0.000029
      8          8           0        2.158967   -1.537840   -0.000151
      9          8           0        2.369809    0.731994   -0.000028
     10          8           0        0.086259    2.223290    0.000107
     11          1           0        0.061110   -2.206147   -0.000089
     12          1           0       -2.287936   -2.407673   -0.000060
     13          1           0       -3.651136   -0.266228    0.000057
     14          1           0       -2.434665    1.924494    0.000136
     15          1           0        3.327527    0.547383   -0.000098
     16          1           0        1.058493    2.165248    0.000082
 ---------------------------------------------------------------------

 SCF Done:  E(RB2PLYP) =  -511.504987598     A.U. after    1 cycles
 E2(B2PLYP) =    -0.4978192820D+00 E(B2PLYP) =    -0.51200280688045D+03
 E2(B2PLYP) =    -0.4978192820D+00 E(B2PLYP) =    -0.51200280688044D+03

 The electronic state is 1-A.
 Alpha  occ. eigenvalues --  -19.99256 -19.96730 -19.93274 -15.15741 -10.97577
 Alpha  occ. eigenvalues --  -10.92455 -10.90184 -10.90154 -10.85685 -10.85256
 Alpha  occ. eigenvalues --   -1.45280  -1.40876  -1.36621  -1.34259  -1.14386
 Alpha  occ. eigenvalues --   -1.11682  -0.99747  -0.96224  -0.92730  -0.86708
 Alpha  occ. eigenvalues --   -0.83575  -0.80134  -0.77509  -0.76137  -0.75053
 Alpha  occ. eigenvalues --   -0.74106  -0.69408  -0.68964  -0.67655  -0.66778
 Alpha  occ. eigenvalues --   -0.65774  -0.62025  -0.58132  -0.55374  -0.53927
 Alpha  occ. eigenvalues --   -0.48732
 Alpha virt. eigenvalues --   -0.22589  -0.16787  -0.11600  -0.09738  -0.08202
 Alpha virt. eigenvalues --   -0.08038  -0.07424  -0.06257  -0.06034  -0.05237
 Alpha virt. eigenvalues --   -0.02902  -0.02783  -0.01780  -0.01438  -0.00226

 Mulliken charges:
               1
     1  N   -0.246089
     2  C   -0.108069
     3  C    0.095417
     4  C    0.022172
     5  C    0.366627
     6  C    0.070773
     7  C    0.456721
     8  O   -0.474612
     9  O   -0.621092
    10  O   -0.546142
    11  H    0.397779
    12  H    0.229094
    13  H    0.226479
    14  H    0.229611
    15  H    0.456050
    16  H    0.445285
 Sum of Mulliken charges =   1.00000

 Dipole moment (field-independent basis, Debye):
    X=             -2.9498    Y=             -1.3248    Z=              0.0001  Tot=              3.2337
 Quadrupole moment (field-independent basis, Debye-Ang):
   XX=            -25.4405   YY=            -45.3112   ZZ=            -56.5608
   XY=             10.0531   XZ=             -0.0002   YZ=              0.0001

  Exact polarizability: 109.134   1.628  94.209  -0.002   0.003  41.189
 Approx polarizability: 123.533  -0.057 123.640  -0.002   0.004  52.155

                      1                      2                      3
                      A                      A                      A
 Frequencies --     85.6131               131.3173               221.5950
 Red. masses --     10.6974                 4.5850                 6.4054
 Frc consts  --      0.0462                 0.0466                 0.1853
 IR Inten    --      3.7125                 0.0507                 6.8850

                      4                      5                      6
                      A                      A                      A
 Frequencies --    235.5637               361.9491               400.7861
 Red. masses --      4.8066                 7.7888                 3.5709
 Frc consts  --      0.1571                 0.6012                 0.3379
 IR Inten    --      2.5383                 6.2430                 9.2846

                      7                      8                      9
                      A                      A                      A
 Frequencies --    409.7785               529.2819               547.3916
 Red. masses --      6.9248                 2.9120                 6.0467
 Frc consts  --      0.6851                 0.4806                 1.0675
 IR Inten    --     14.1302                29.2278                 2.7431

                     10                     11                     12
                      A                      A                      A
 Frequencies --    565.6020               572.8605               589.9190
 Red. masses --      1.5220                 6.6089                 1.1501
 Frc consts  --      0.2869                 1.2778                 0.2358
 IR Inten    --    132.4840                14.3213                 3.3079

                     13                     14                     15
                      A                      A                      A
 Frequencies --    625.1904               632.0504               730.6197
 Red. masses --      3.0270                 5.1760                 8.0101
 Frc consts  --      0.6971                 1.2183                 2.5192
 IR Inten    --    102.1232                32.1670                45.8778

                     16                     17                     18
                      A                      A                      A
 Frequencies --    747.2000               801.0015               884.1913
 Red. masses --      4.7264                 1.3054                 1.2170
 Frc consts  --      1.5547                 0.4935                 0.5606
 IR Inten    --     13.0044                79.1150                11.7265

                     19                     20                     21
                      A                      A                      A
 Frequencies --    884.7600               961.4819               992.7853
 Red. masses --      5.9518                 1.2763                 1.2615
 Frc consts  --      2.7450                 0.6952                 0.7326
 IR Inten    --     18.9066                11.2663                 0.0023

                     22                     23                     24
                      A                      A                      A
 Frequencies --   1074.4670              1127.2627              1156.1475
 Red. masses --      2.5152                 2.1860                 3.1046
 Frc consts  --      1.7108                 1.6366                 2.4450
 IR Inten    --     22.3673                10.9244               113.0182

                     25                     26                     27
                      A                      A                      A
 Frequencies --   1192.1675              1253.0514              1275.4774
 Red. masses --      1.2836                 1.3567                 1.4696
 Frc consts  --      1.0748                 1.2551                 1.4087
 IR Inten    --     65.8843                14.6342               258.7847

                     28                     29                     30
                      A                      A                      A
 Frequencies --   1337.7327              1375.6069              1404.8374
 Red. masses --      3.5194                 1.6999                 2.0798
 Frc consts  --      3.7107                 1.8952                 2.4183
 IR Inten    --    114.8606                58.0648                79.7404

                     31                     32                     33
                      A                      A                      A
 Frequencies --   1457.4655              1537.2014              1578.0836
 Red. masses --      4.6603                 2.8614                 2.3784
 Frc consts  --      5.8325                 3.9838                 3.4898
 IR Inten    --     20.5641                59.6252               235.6746

                     34                     35                     36
                      A                      A                      A
 Frequencies --   1641.3823              1681.7559              1815.1143
 Red. masses --      5.8356                 4.9608                10.2829
 Frc consts  --      9.2631                 8.2667                19.9606
 IR Inten    --     14.5399                20.9949               315.0657

                     37                     38                     39
                      A                      A                      A
 Frequencies --   3255.1223              3273.3910              3287.3770
 Red. masses --      1.0929                 1.0948                 1.0988
 Frc consts  --      6.8230                 6.9114                 6.9964
 IR Inten    --      6.0850                 7.9305                17.9181

                     40                     41                     42
                      A                      A                      A
 Frequencies --   3487.7600              3713.3805              3737.2343
 Red. masses --      1.0803                 1.0666                 1.0650
 Frc consts  --      7.7426                 8.6654                 8.7637
 IR Inten    --    190.9539               356.0331               154.0416

 - Thermochemistry -
 -------------------
 Temperature   298.150 Kelvin.  Pressure   1.00000 Atm.
 Atom     1 has atomic number  7 and mass  14.00307

 Molecular mass:   140.03477 amu.
 Principal axes and moments of inertia in atomic units:
                           1         2         3
     Eigenvalues --   793.676891448.822842242.49973
           X            0.99951   0.03122   0.00002
           Y           -0.03122   0.99951  -0.00005
           Z           -0.00003   0.00005   1.00000
 This molecule is an asymmetric top.
 Rotational symmetry number  1.
 Warning -- assumption of classical behavior for rotation
           may cause significant error
 Rotational temperatures (Kelvin)      0.10913     0.05978     0.03862
 Rotational constants (GHZ):           2.27390     1.24566     0.80479
 Zero-point vibrational energy     320437.4 (Joules/Mol)
                                   76.58639 (Kcal/Mol)
 Warning -- explicit consideration of  12 degrees of freedom as
           vibrations may cause significant error
 Vibrational temperatures:    123.18   188.94   318.83   338.92   520.76
          (Kelvin)            576.64   589.58   761.52   787.57   813.77
                              824.22   848.76   899.51   909.38  1051.20
                             1075.05  1152.46  1272.15  1272.97  1383.36
                             1428.39  1545.92  1621.88  1663.44  1715.26
                             1802.86  1835.13  1924.70  1979.19  2021.25
                             2096.97  2211.69  2270.51  2361.58  2419.67
                             2611.54  4683.39  4709.67  4729.80  5018.10
                             5342.72  5377.04

 Zero-point correction=                           0.122048 (Hartree/Particle)
 Thermal correction to Energy=                    0.130144
 Thermal correction to Enthalpy=                  0.131088
 Thermal correction to Gibbs Free Energy=         0.089005
 Sum of electronic and zero-point Energies=           -511.880759
 Sum of electronic and thermal Energies=              -511.872663
 Sum of electronic and thermal Enthalpies=            -511.871719
 Sum of electronic and thermal Free Energies=         -511.913802

                     E (Thermal)             CV                S
                      KCal/Mol        Cal/Mol-Kelvin    Cal/Mol-Kelvin
 Total                   81.667             31.447             88.572
 Electronic               0.000              0.000              0.000
 Translational            0.889              2.981             40.722
 Rotational               0.889              2.981             29.335
 Vibrational             79.889             25.485             18.516
 Vibration     1          0.601              1.959              3.758
 Vibration     2          0.612              1.922              2.927
 Vibration     3          0.648              1.808              1.946
 Vibration     4          0.655              1.786              1.836
 Vibration     5          0.736              1.551              1.114
 Vibration     6          0.767              1.468              0.960
 Vibration     7          0.774              1.449              0.927
 Vibration     8          0.884              1.185              0.589
 Vibration     9          0.903              1.145              0.550
 Vibration    10          0.921              1.106              0.513
 Vibration    11          0.929              1.090              0.499
 Vibration    12          0.947              1.053              0.467

 Optimization completed.
    -- Stationary point found.
 Normal termination of Gaussian 09 at Sat Dec 14 18:18:20 2024.
