 Gaussian 09, Revision E.01,
 Gaussian 09:  ES64L-G09RevE.01 30-Nov-2015

 -----------------------------
 # opt freq B2PLYP/6-31+g(d,p)
 -----------------------------

 ----------
 [No Title]
 ----------
 Symbolic Z-matrix:
 Charge =  0 Multiplicity = 1

 SCF Done:  E(RB2PLYP) =  -511.145363444     A.U. after   15 cycles
 E2(B2PLYP) =    -0.4979368971D+00 E(B2PLYP) =    -0.51164330034075D+03
 SCF Done:  E(RB2PLYP) =  -511.144182289     A.U. after   12 cycles
 E2(B2PLYP) =    -0.4996834826D+00 E(B2PLYP) =    -0.51164386577143D+03
 SCF Done:  E(RB2PLYP) =  -511.143959613     A.U. after   12 cycles
 E2(B2PLYP) =    -0.4999313244D+00 E(B2PLYP) =    -0.51164389093749D+03
 SCF Done:  E(RB2PLYP) =  -511.143928921     A.U. after   11 cycles
 E2(B2PLYP) =    -0.4999766088D+00 E(B2PLYP) =    -0.51164390552981D+03
 SCF Done:  E(RB2PLYP) =  -511.144009831     A.U. after   10 cycles
 E2(B2PLYP) =    -0.4998984972D+00 E(B2PLYP) =    -0.51164390832808D+03
 SCF Done:  E(RB2PLYP) =  -511.144021473     A.U. after    9 cycles
 E2(B2PLYP) =    -0.4998866568D+00 E(B2PLYP) =    -0.51164390812961D+03
 SCF Done:  E(RB2PLYP) =  -511.144019675     A.U. after    8 cycles
 E2(B2PLYP) =    -0.4998887936D+00 E(B2PLYP) =    -0.51164390846835D+03
 Optimization completed.
    -- Stationary point found.
 Normal termination of Gaussian 09 at Sat Dec 14 17:09:13 2024.

 ----------------------------------------------------------------------
 #N Geom=AllCheck Guess=TCheck SCRF=Check GenChk RB2PLYP(FC)/6-31+G(d,p
 ) Freq
 ----------------------------------------------------------------------

 Structure from the checkpoint file:  "B2PLYP3HPA.chk"
 ----------
 [No Title]
 ----------
 Charge =  0 Multiplicity = 1

                         Standard orientation:
 ---------------------------------------------------------------------
 Center     Atomic      Atomic             Coordinates (Angstroms)
 Number     Number       Type             X           Y           Z
 ---------------------------------------------------------------------
      1          7           0       -0.435052   -1.453877    0.000040
      2          6           0       -1.764173   -1.484608    0.000038
      3          6           0       -2.554951   -0.321523    0.000013
      4          6           0       -1.935665    0.917043   -0.000006
      5          6           0       -0.532062    0.972594   -0.000001
      6          6           0        0.176580   -0.252354    0.000022
      7          6           0        1.654111   -0.221887    0.000016
      8          8           0        2.303991    0.830296   -0.000081
      9          8           0        2.251750   -1.419118   -0.000007
     10          8           0        0.056420    2.182779   -0.000009
     11          1           0       -2.223089   -2.467147    0.000054
     12          1           0       -3.635747   -0.398829    0.000011
     13          1           0       -2.494707    1.844509   -0.000023
     14          1           0        3.208581   -1.248356   -0.000057
     15          1           0        1.029999    2.039711    0.000018
 ---------------------------------------------------------------------

 SCF Done:  E(RB2PLYP) =  -511.144019675     A.U. after    1 cycles
 E2(B2PLYP) =    -0.4998887991D+00 E(B2PLYP) =    -0.51164390847384D+03
 E2(B2PLYP) =    -0.4998887991D+00 E(B2PLYP) =    -0.51164390847384D+03

 The electronic state is 1-A.
 Alpha  occ. eigenvalues --  -19.81849 -19.78820 -19.76801 -14.88216 -10.80240
 Alpha  occ. eigenvalues --  -10.73158 -10.69377 -10.67959 -10.66812 -10.66401
 Alpha  occ. eigenvalues --   -1.28395  -1.22737  -1.18135  -1.09789  -0.94259
 Alpha  occ. eigenvalues --   -0.90651  -0.80202  -0.74609  -0.72764  -0.64566
 Alpha  occ. eigenvalues --   -0.63678  -0.60742  -0.58260  -0.56110  -0.55566
 Alpha  occ. eigenvalues --   -0.50997  -0.50399  -0.49687  -0.48447  -0.47571
 Alpha  occ. eigenvalues --   -0.44634  -0.41255  -0.38842  -0.34467  -0.34406
 Alpha  occ. eigenvalues --   -0.29553
 Alpha virt. eigenvalues --   -0.02763   0.02378   0.02577   0.03269   0.05164
 Alpha virt. eigenvalues --    0.05716   0.07072   0.07400   0.08017   0.08867
 Alpha virt. eigenvalues --    0.09936   0.10352   0.11071   0.11648   0.12839

 Mulliken charges:
               1
     1  N   -0.208307
     2  C   -0.150032
     3  C    0.076303
     4  C    0.017949
     5  C    0.040932
     6  C   -0.005893
     7  C    0.605503
     8  O   -0.606668
     9  O   -0.476971
    10  O   -0.598675
    11  H    0.145294
    12  H    0.162168
    13  H    0.172679
    14  H    0.393927
    15  H    0.431791
 Sum of Mulliken charges =  -0.00000

 Dipole moment (field-independent basis, Debye):
    X=             -1.5272    Y=             -0.5758    Z=              0.0001  Tot=              1.6321
 Quadrupole moment (field-independent basis, Debye-Ang):
   XX=            -43.6496   YY=            -63.2778   ZZ=            -58.6655
   XY=             -2.2748   XZ=              0.0002   YZ=              0.0004

  Exact polarizability: 117.636   3.485  97.639  -0.001  -0.001  46.858
 Approx polarizability: 130.863   6.212 124.378  -0.001  -0.001  58.410

                      1                      2                      3
                      A                      A                      A
 Frequencies --     80.7578               133.1993               245.3155
 Red. masses --      9.1188                 6.0261                 6.5050
 Frc consts  --      0.0350                 0.0630                 0.2306
 IR Inten    --      1.0666                 3.1096                 2.5846

                      4                      5                      6
                      A                      A                      A
 Frequencies --    246.0330               364.3295               421.4880
 Red. masses --      5.0566                 7.5738                 4.0458
 Frc consts  --      0.1803                 0.5923                 0.4235
 IR Inten    --      1.4158                11.1087                 0.4340

                      7                      8                      9
                      A                      A                      A
 Frequencies --    439.0290               527.9368               538.2424
 Red. masses --      9.6698                 5.6099                 4.1652
 Frc consts  --      1.0981                 0.9212                 0.7110
 IR Inten    --      2.9707                 4.6503                 0.7233

                     10                     11                     12
                      A                      A                      A
 Frequencies --    579.2389               602.8136               649.7733
 Red. masses --      7.5640                 1.2668                 6.2695
 Frc consts  --      1.4953                 0.2712                 1.5596
 IR Inten    --      5.9441                71.7985                66.1542

                     13                     14                     15
                      A                      A                      A
 Frequencies --    692.2094               756.4704               759.9259
 Red. masses --      4.5254                 4.8271                 1.7103
 Frc consts  --      1.2776                 1.6275                 0.5819
 IR Inten    --     20.9105                24.0248               177.7891

                     16                     17                     18
                      A                      A                      A
 Frequencies --    769.1492               820.9733               878.9604
 Red. masses --      2.0111                 1.3746                 7.0264
 Frc consts  --      0.7010                 0.5459                 3.1983
 IR Inten    --      8.2495                11.8157                 7.5701

                     19                     20                     21
                      A                      A                      A
 Frequencies --    931.7302               971.0739              1074.8092
 Red. masses --      1.3284                 1.2713                 2.4421
 Frc consts  --      0.6794                 0.7063                 1.6622
 IR Inten    --      0.0462                 0.6053                 1.6830

                     22                     23                     24
                      A                      A                      A
 Frequencies --   1113.5782              1159.7071              1203.5800
 Red. masses --      3.7499                 1.4835                 1.8125
 Frc consts  --      2.7398                 1.1755                 1.5470
 IR Inten    --     88.4620                14.3027               335.6571

                     25                     26                     27
                      A                      A                      A
 Frequencies --   1270.4284              1305.2196              1364.9105
 Red. masses --      1.8456                 2.3852                 2.2525
 Frc consts  --      1.7550                 2.3941                 2.4724
 IR Inten    --      2.0282               106.8617                25.2576

                     28                     29                     30
                      A                      A                      A
 Frequencies --   1381.2783              1459.1754              1493.6306
 Red. masses --      2.8851                 3.0421                 2.9657
 Frc consts  --      3.2432                 3.8163                 3.8982
 IR Inten    --     45.3343               156.3352               193.5693

                     31                     32                     33
                      A                      A                      A
 Frequencies --   1504.9191              1626.6309              1646.7555
 Red. masses --      2.4579                 4.3349                 6.7064
 Frc consts  --      3.2797                 6.7579                10.7151
 IR Inten    --     16.4606                25.0872                 4.6122

                     34                     35                     36
                      A                      A                      A
 Frequencies --   1728.9702              3218.6410              3236.5474
 Red. masses --      7.2624                 1.0888                 1.0920
 Frc consts  --     12.7910                 6.6460                 6.7397
 IR Inten    --    333.0244                 6.8534                13.5667

                     37                     38                     39
                      A                      A                      A
 Frequencies --   3251.9713              3483.6758              3772.1143
 Red. masses --      1.0969                 1.0670                 1.0644
 Frc consts  --      6.8348                 7.6290                 8.9231
 IR Inten    --      3.9621               316.5505               113.4363

 - Thermochemistry -
 -------------------
 Temperature   298.150 Kelvin.  Pressure   1.00000 Atm.
 Atom     1 has atomic number  7 and mass  14.00307

 Molecular mass:   139.02694 amu.
 Principal axes and moments of inertia in atomic units:
                           1         2         3
     Eigenvalues --   767.847091435.059932202.90702
           X            1.00000   0.00227   0.00001
           Y           -0.00227   1.00000   0.00001
           Z           -0.00001  -0.00001   1.00000
 This molecule is an asymmetric top.
 Rotational symmetry number  1.
 Warning -- assumption of classical behavior for rotation
           may cause significant error
 Rotational temperatures (Kelvin)      0.11280     0.06036     0.03932
 Rotational constants (GHZ):           2.35039     1.25761     0.81925
 Zero-point vibrational energy     285340.4 (Joules/Mol)
                                   68.19800 (Kcal/Mol)
 Warning -- explicit consideration of  11 degrees of freedom as
           vibrations may cause significant error
 Vibrational temperatures:    116.19   191.64   352.95   353.99   524.19
          (Kelvin)            606.43   631.66   759.58   774.41   833.39
                              867.31   934.88   995.93  1088.39  1093.36
                             1106.63  1181.20  1264.63  1340.55  1397.16
                             1546.41  1602.19  1668.56  1731.68  1827.86
                             1877.92  1963.80  1987.35  2099.43  2149.00
                             2165.24  2340.36  2369.31  2487.60  4630.90
                             4656.66  4678.86  5012.23  5427.22

 Zero-point correction=                           0.108680 (Hartree/Particle)
 Thermal correction to Energy=                    0.116475
 Thermal correction to Enthalpy=                  0.117419
 Thermal correction to Gibbs Free Energy=         0.075829
 Sum of electronic and zero-point Energies=           -511.535228
 Sum of electronic and thermal Energies=              -511.527434
 Sum of electronic and thermal Enthalpies=            -511.526490
 Sum of electronic and thermal Free Energies=         -511.568079

                     E (Thermal)             CV                S
                      KCal/Mol        Cal/Mol-Kelvin    Cal/Mol-Kelvin
 Total                   73.089             30.037             87.533
 Electronic               0.000              0.000              0.000
 Translational            0.889              2.981             40.700
 Rotational               0.889              2.981             29.275
 Vibrational             71.312             24.075             17.558
 Vibration     1          0.600              1.962              3.872
 Vibration     2          0.613              1.920              2.899
 Vibration     3          0.660              1.771              1.764
 Vibration     4          0.661              1.769              1.759
 Vibration     5          0.738              1.546              1.104
 Vibration     6          0.784              1.424              0.887
 Vibration     7          0.799              1.385              0.830
 Vibration     8          0.883              1.188              0.592
 Vibration     9          0.893              1.165              0.569
 Vibration    10          0.936              1.076              0.487
 Vibration    11          0.961              1.026              0.445

 Optimization completed.
    -- Stationary point found.
 Normal termination of Gaussian 09 at Sat Dec 14 17:20:54 2024.
