 Gaussian 09, Revision E.01,
 Gaussian 09:  ES64L-G09RevE.01 30-Nov-2015

 ----------------------------
 # opt freq b3lyp/6-31+g(d,p)
 ----------------------------

 ----------
 [No Title]
 ----------
 Symbolic Z-matrix:
 Charge =  0 Multiplicity = 1

 SCF Done:  E(RB3LYP) =  -512.077857064     A.U. after   15 cycles
 SCF Done:  E(RB3LYP) =  -512.117480348     A.U. after   14 cycles
 SCF Done:  E(RB3LYP) =  -512.122012327     A.U. after   13 cycles
 SCF Done:  E(RB3LYP) =  -512.122170374     A.U. after   12 cycles
 SCF Done:  E(RB3LYP) =  -512.122240380     A.U. after   11 cycles
 SCF Done:  E(RB3LYP) =  -512.122259284     A.U. after   11 cycles
 SCF Done:  E(RB3LYP) =  -512.122262780     A.U. after   10 cycles
 SCF Done:  E(RB3LYP) =  -512.122263706     A.U. after    9 cycles
 Optimization completed.
    -- Stationary point found.
 Normal termination of Gaussian 09 at Thu Jun 20 11:45:07 2024.

 ----------------------------------------------------------------------
 #N Geom=AllCheck Guess=TCheck SCRF=Check GenChk RB3LYP/6-31+G(d,p) Fre
 q
 ----------------------------------------------------------------------

 Structure from the checkpoint file:  "b3lyp3HPAgd3.chk"
 ----------
 [No Title]
 ----------
 Charge =  0 Multiplicity = 1

                         Standard orientation:
 ---------------------------------------------------------------------
 Center     Atomic      Atomic             Coordinates (Angstroms)
 Number     Number       Type             X           Y           Z
 ---------------------------------------------------------------------
      1          7           0       -0.440380   -1.451734    0.000053
      2          6           0       -1.766204   -1.483861    0.000034
      3          6           0       -2.556175   -0.318523   -0.000015
      4          6           0       -1.936569    0.919063   -0.000039
      5          6           0       -0.531883    0.973615   -0.000014
      6          6           0        0.175718   -0.254891    0.000031
      7          6           0        1.653809   -0.223165    0.000079
      8          8           0        2.300569    0.828876    0.000090
      9          8           0        2.257473   -1.416279   -0.000129
     10          8           0        0.062097    2.177460   -0.000046
     11          1           0       -2.228482   -2.467699    0.000054
     12          1           0       -3.639261   -0.395516   -0.000023
     13          1           0       -2.496193    1.848551   -0.000066
     14          1           0        3.215021   -1.246020   -0.000150
     15          1           0        1.038285    2.028931    0.000035
 ---------------------------------------------------------------------

 SCF Done:  E(RB3LYP) =  -512.122263706     A.U. after    1 cycles

 The electronic state is 1-A.
 Alpha  occ. eigenvalues --  -19.22576 -19.19893 -19.17718 -14.36077 -10.35343
 Alpha  occ. eigenvalues --  -10.29005 -10.25502 -10.24017 -10.22890 -10.22611
 Alpha  occ. eigenvalues --   -1.13905  -1.08798  -1.04284  -0.96722  -0.82521
 Alpha  occ. eigenvalues --   -0.79341  -0.70322  -0.65209  -0.64051  -0.56766
 Alpha  occ. eigenvalues --   -0.55679  -0.52161  -0.50540  -0.48573  -0.48403
 Alpha  occ. eigenvalues --   -0.43632  -0.43588  -0.42541  -0.41139  -0.40486
 Alpha  occ. eigenvalues --   -0.38538  -0.34879  -0.31928  -0.30561  -0.27688
 Alpha  occ. eigenvalues --   -0.25878
 Alpha virt. eigenvalues --   -0.08188  -0.03328  -0.00626   0.00357   0.02132
 Alpha virt. eigenvalues --    0.02308   0.02890   0.04605   0.04895   0.05287
 Alpha virt. eigenvalues --    0.07458   0.07729   0.08341   0.08953   0.09987

 Mulliken charges:
               1
     1  N   -0.209776
     2  C   -0.176259
     3  C    0.116574
     4  C   -0.007778
     5  C    0.061905
     6  C    0.017145
     7  C    0.527444
     8  O   -0.564915
     9  O   -0.428128
    10  O   -0.555430
    11  H    0.131067
    12  H    0.139870
    13  H    0.151293
    14  H    0.384239
    15  H    0.412752
 Sum of Mulliken charges =  -0.00000

 Dipole moment (field-independent basis, Debye):
    X=             -1.3081    Y=             -0.4277    Z=             -0.0000  Tot=              1.3763
 Quadrupole moment (field-independent basis, Debye-Ang):
   XX=            -44.0389   YY=            -62.9511   ZZ=            -58.3863
   XY=             -2.2882   XZ=             -0.0004   YZ=              0.0001

  Exact polarizability: 119.763   3.313  97.937   0.000  -0.000  46.901
 Approx polarizability: 182.530   8.633 170.983   0.001  -0.001  68.986

                      1                      2                      3
                      A                      A                      A
 Frequencies --     91.3952               139.0083               244.1541
 Red. masses --      8.8053                 6.0697                 6.4509
 Frc consts  --      0.0433                 0.0691                 0.2266
 IR Inten    --      1.2722                 2.8079                 2.6640

                      4                      5                      6
                      A                      A                      A
 Frequencies --    255.8892               363.5143               437.4879
 Red. masses --      4.9904                 7.5693                 3.8160
 Frc consts  --      0.1925                 0.5893                 0.4303
 IR Inten    --      1.4770                11.3366                 0.4602

                      7                      8                      9
                      A                      A                      A
 Frequencies --    441.1191               528.9426               552.6709
 Red. masses --      9.7014                 5.5756                 3.7735
 Frc consts  --      1.1122                 0.9191                 0.6791
 IR Inten    --      2.8670                 3.9201                 0.8588

                     10                     11                     12
                      A                      A                      A
 Frequencies --    578.4542               609.6702               650.4925
 Red. masses --      7.5593                 1.2462                 6.2139
 Frc consts  --      1.4903                 0.2729                 1.5492
 IR Inten    --      6.3357                76.0190                67.3567

                     13                     14                     15
                      A                      A                      A
 Frequencies --    727.5564               756.3940               796.9079
 Red. masses --      3.3912                 4.7324                 1.0997
 Frc consts  --      1.0576                 1.5953                 0.4115
 IR Inten    --     55.7282                24.3543               128.2477

                     16                     17                     18
                      A                      A                      A
 Frequencies --    815.2497               830.6977               877.1357
 Red. masses --      9.1383                 1.3813                 7.0237
 Frc consts  --      3.5785                 0.5616                 3.1838
 IR Inten    --     21.2327                 3.0741                 7.5951

                     19                     20                     21
                      A                      A                      A
 Frequencies --    941.7029               999.0046              1068.1467
 Red. masses --      1.3759                 1.3388                 2.4048
 Frc consts  --      0.7189                 0.7872                 1.6165
 IR Inten    --      0.0146                 0.8065                 2.5588

                     22                     23                     24
                      A                      A                      A
 Frequencies --   1111.1462              1153.4994              1194.5315
 Red. masses --      3.6043                 1.4413                 1.9265
 Frc consts  --      2.6219                 1.1299                 1.6196
 IR Inten    --     80.3587                 5.5422               372.0222

                     25                     26                     27
                      A                      A                      A
 Frequencies --   1266.2540              1299.0792              1353.8308
 Red. masses --      1.8363                 2.5811                 2.8684
 Frc consts  --      1.7348                 2.5664                 3.0975
 IR Inten    --      0.6578                80.1663                34.8138

                     28                     29                     30
                      A                      A                      A
 Frequencies --   1371.1974              1450.1991              1484.2109
 Red. masses --      2.1038                 3.4707                 2.6814
 Frc consts  --      2.3306                 4.3005                 3.4803
 IR Inten    --     51.1690               175.4674               191.8242

                     31                     32                     33
                      A                      A                      A
 Frequencies --   1499.4088              1616.5048              1641.6736
 Red. masses --      2.5738                 4.1298                 6.8255
 Frc consts  --      3.4093                 6.3581                10.8383
 IR Inten    --     14.9858                26.0770                 4.9747

                     34                     35                     36
                      A                      A                      A
 Frequencies --   1728.1955              3181.3674              3202.6308
 Red. masses --      7.4077                 1.0889                 1.0916
 Frc consts  --     13.0352                 6.4932                 6.5965
 IR Inten    --    361.5095                 9.1549                14.5455

                     37                     38                     39
                      A                      A                      A
 Frequencies --   3219.6428              3419.3435              3756.1786
 Red. masses --      1.0962                 1.0674                 1.0644
 Frc consts  --      6.6951                 7.3530                 8.8480
 IR Inten    --      3.7423               337.8056               109.0049

 - Thermochemistry -
 -------------------
 Temperature   298.150 Kelvin.  Pressure   1.00000 Atm.
 Atom     1 has atomic number  7 and mass  14.00307

 Molecular mass:   139.02694 amu.
 Principal axes and moments of inertia in atomic units:
                           1         2         3
     Eigenvalues --   765.638431436.983542202.62197
           X            1.00000   0.00223  -0.00000
           Y           -0.00223   1.00000   0.00000
           Z            0.00000  -0.00000   1.00000
 This molecule is an asymmetric top.
 Rotational symmetry number  1.
 Warning -- assumption of classical behavior for rotation
           may cause significant error
 Rotational temperatures (Kelvin)      0.11313     0.06027     0.03932
 Rotational constants (GHZ):           2.35717     1.25592     0.81936
 Zero-point vibrational energy     285037.1 (Joules/Mol)
                                   68.12551 (Kcal/Mol)
 Warning -- explicit consideration of  11 degrees of freedom as
           vibrations may cause significant error
 Vibrational temperatures:    131.50   200.00   351.28   368.17   523.02
          (Kelvin)            629.45   634.67   761.03   795.17   832.27
                              877.18   935.91  1046.79  1088.28  1146.57
                             1172.96  1195.19  1262.00  1354.90  1437.34
                             1536.82  1598.69  1659.63  1718.66  1821.85
                             1869.08  1947.86  1972.84  2086.51  2135.45
                             2157.31  2325.79  2362.00  2486.48  4577.27
                             4607.87  4632.34  4919.67  5404.30

 Zero-point correction=                           0.108565 (Hartree/Particle)
 Thermal correction to Energy=                    0.116244
 Thermal correction to Enthalpy=                  0.117188
 Thermal correction to Gibbs Free Energy=         0.075888
 Sum of electronic and zero-point Energies=           -512.013699
 Sum of electronic and thermal Energies=              -512.006020
 Sum of electronic and thermal Enthalpies=            -512.005076
 Sum of electronic and thermal Free Energies=         -512.046376

                     E (Thermal)             CV                S
                      KCal/Mol        Cal/Mol-Kelvin    Cal/Mol-Kelvin
 Total                   72.944             29.701             86.923
 Electronic               0.000              0.000              0.000
 Translational            0.889              2.981             40.700
 Rotational               0.889              2.981             29.273
 Vibrational             71.167             23.739             16.950
 Vibration     1          0.602              1.955              3.630
 Vibration     2          0.615              1.914              2.817
 Vibration     3          0.659              1.772              1.772
 Vibration     4          0.666              1.753              1.690
 Vibration     5          0.737              1.547              1.107
 Vibration     6          0.798              1.388              0.835
 Vibration     7          0.801              1.380              0.823
 Vibration     8          0.884              1.186              0.590
 Vibration     9          0.908              1.134              0.539
 Vibration    10          0.935              1.078              0.488
 Vibration    11          0.969              1.011              0.433

 Optimization completed.
    -- Stationary point found.
 Normal termination of Gaussian 09 at Thu Jun 20 11:46:10 2024.
