 Gaussian 09, Revision E.01,
 Gaussian 09:  ES64L-G09RevE.01 30-Nov-2015

 ----------------------------
 # opt freq b3lyp/6-31+g(d,p)
 ----------------------------

 ----------
 [No Title]
 ----------
 Symbolic Z-matrix:
 Charge =  1 Multiplicity = 1

 SCF Done:  E(RB3LYP) =  -512.431203122     A.U. after   14 cycles
 SCF Done:  E(RB3LYP) =  -512.468463127     A.U. after   13 cycles
 SCF Done:  E(RB3LYP) =  -512.479953080     A.U. after   14 cycles
 SCF Done:  E(RB3LYP) =  -512.481388781     A.U. after   12 cycles
 SCF Done:  E(RB3LYP) =  -512.481877552     A.U. after   12 cycles
 SCF Done:  E(RB3LYP) =  -512.481904825     A.U. after   12 cycles
 SCF Done:  E(RB3LYP) =  -512.481967102     A.U. after   11 cycles
 SCF Done:  E(RB3LYP) =  -512.481973059     A.U. after   10 cycles
 SCF Done:  E(RB3LYP) =  -512.481973539     A.U. after    9 cycles
 Optimization completed.
    -- Stationary point found.
 Normal termination of Gaussian 09 at Thu Jun 20 12:17:41 2024.

 ----------------------------------------------------------------------
 #N Geom=AllCheck Guess=TCheck SCRF=Check GenChk RB3LYP/6-31+G(d,p) Fre
 q
 ----------------------------------------------------------------------

 Structure from the checkpoint file:  "b3lyp3HPAyanggd3.chk"
 ----------
 [No Title]
 ----------
 Charge =  1 Multiplicity = 1

                         Standard orientation:
 ---------------------------------------------------------------------
 Center     Atomic      Atomic             Coordinates (Angstroms)
 Number     Number       Type             X           Y           Z
 ---------------------------------------------------------------------
      1          7           0       -0.511586   -1.355401   -0.000032
      2          6           0       -1.844641   -1.420254   -0.000119
      3          6           0       -2.572008   -0.224194    0.000011
      4          6           0       -1.900179    0.984943    0.000135
      5          6           0       -0.483113    1.023189    0.000132
      6          6           0        0.206987   -0.198997    0.000102
      7          6           0        1.680905   -0.425647    0.000048
      8          8           0        2.157849   -1.536062    0.000007
      9          8           0        2.373068    0.727868    0.000025
     10          8           0        0.092098    2.219690   -0.000183
     11          1           0        0.057082   -2.208039   -0.000073
     12          1           0       -2.295496   -2.405036   -0.000262
     13          1           0       -3.655240   -0.260469    0.000030
     14          1           0       -2.434514    1.929845    0.000201
     15          1           0        3.331704    0.544526   -0.000025
     16          1           0        1.065740    2.160766   -0.000296
 ---------------------------------------------------------------------

 SCF Done:  E(RB3LYP) =  -512.481973539     A.U. after    1 cycles

 The electronic state is 1-A.
 Alpha  occ. eigenvalues --  -19.40087 -19.38005 -19.34062 -14.63656 -10.52736
 Alpha  occ. eigenvalues --  -10.48306 -10.46138 -10.45781 -10.41611 -10.41402
 Alpha  occ. eigenvalues --   -1.30814  -1.27032  -1.22847  -1.20766  -1.02548
 Alpha  occ. eigenvalues --   -1.00292  -0.89755  -0.86668  -0.83944  -0.78585
 Alpha  occ. eigenvalues --   -0.75551  -0.72094  -0.70103  -0.67697  -0.67292
 Alpha  occ. eigenvalues --   -0.67051  -0.62536  -0.61382  -0.60440  -0.59791
 Alpha  occ. eigenvalues --   -0.59174  -0.55085  -0.51949  -0.49784  -0.48379
 Alpha  occ. eigenvalues --   -0.44925
 Alpha virt. eigenvalues --   -0.27827  -0.22696  -0.15227  -0.15213  -0.13654
 Alpha virt. eigenvalues --   -0.11454  -0.11046  -0.09607  -0.09017  -0.08512
 Alpha virt. eigenvalues --   -0.06229  -0.05463  -0.05387  -0.04711  -0.04334

 Mulliken charges:
               1
     1  N   -0.203278
     2  C   -0.150673
     3  C    0.149642
     4  C   -0.001312
     5  C    0.380515
     6  C    0.090223
     7  C    0.372702
     8  O   -0.434241
     9  O   -0.572927
    10  O   -0.502759
    11  H    0.372133
    12  H    0.211729
    13  H    0.205221
    14  H    0.206835
    15  H    0.444868
    16  H    0.431320
 Sum of Mulliken charges =   1.00000

 Dipole moment (field-independent basis, Debye):
    X=             -2.6623    Y=             -1.1446    Z=             -0.0002  Tot=              2.8979
 Quadrupole moment (field-independent basis, Debye-Ang):
   XX=            -25.5423   YY=            -44.8862   ZZ=            -56.2276
   XY=              9.7541   XZ=             -0.0007   YZ=              0.0008

  Exact polarizability: 110.959   1.393  94.431   0.000   0.001  41.207
 Approx polarizability: 172.424   0.647 170.886   0.001   0.004  60.876

                      1                      2                      3
                      A                      A                      A
 Frequencies --     95.1920               136.7274               219.0950
 Red. masses --     10.3183                 4.5451                 6.3612
 Frc consts  --      0.0551                 0.0501                 0.1799
 IR Inten    --      4.7460                 0.0314                 7.1903

                      4                      5                      6
                      A                      A                      A
 Frequencies --    246.8930               361.1223               410.8869
 Red. masses --      4.8012                 7.7731                 6.9178
 Frc consts  --      0.1724                 0.5972                 0.6881
 IR Inten    --      1.9434                 6.6710                13.8469

                      7                      8                      9
                      A                      A                      A
 Frequencies --    416.4705               546.6078               547.5839
 Red. masses --      3.3424                 3.0139                 5.9579
 Frc consts  --      0.3416                 0.5306                 1.0526
 IR Inten    --      9.8480                 6.2158                 2.2382

                     10                     11                     12
                      A                      A                      A
 Frequencies --    572.1034               588.7723               611.4481
 Red. masses --      6.6935                 1.3593                 1.1055
 Frc consts  --      1.2908                 0.2776                 0.2435
 IR Inten    --     13.9272               127.7519                54.0350

                     13                     14                     15
                      A                      A                      A
 Frequencies --    632.4100               676.7330               746.5746
 Red. masses --      5.1276                 3.0026                 4.6565
 Frc consts  --      1.2083                 0.8102                 1.5292
 IR Inten    --     33.2158               103.0245                12.9588

                     16                     17                     18
                      A                      A                      A
 Frequencies --    779.4030               808.0018               882.6361
 Red. masses --      9.4733                 1.3477                 5.9174
 Frc consts  --      3.3906                 0.5184                 2.7161
 IR Inten    --     16.1819                76.9501                19.4401

                     19                     20                     21
                      A                      A                      A
 Frequencies --    894.6794               974.4274              1020.1367
 Red. masses --      1.2607                 1.3112                 1.3235
 Frc consts  --      0.5946                 0.7335                 0.8115
 IR Inten    --      9.8360                11.8559                 0.0001

                     22                     23                     24
                      A                      A                      A
 Frequencies --   1069.4115              1120.2096              1154.5933
 Red. masses --      2.4457                 2.1890                 3.0166
 Frc consts  --      1.6479                 1.6184                 2.3694
 IR Inten    --     20.1607                15.2878               112.5930

                     25                     26                     27
                      A                      A                      A
 Frequencies --   1182.2350              1246.4671              1266.5503
 Red. masses --      1.3108                 1.3533                 1.4807
 Frc consts  --      1.0794                 1.2388                 1.3995
 IR Inten    --     80.2171                16.0435               252.3306

                     28                     29                     30
                      A                      A                      A
 Frequencies --   1323.2936              1366.3381              1395.3256
 Red. masses --      3.6249                 1.7061                 2.1681
 Frc consts  --      3.7399                 1.8766                 2.4870
 IR Inten    --    127.1727                52.0140                68.9660

                     31                     32                     33
                      A                      A                      A
 Frequencies --   1437.5419              1530.5017              1568.4749
 Red. masses --      4.0016                 2.9415                 2.3878
 Frc consts  --      4.8722                 4.0597                 3.4611
 IR Inten    --     27.7984                61.2760               238.2519

                     34                     35                     36
                      A                      A                      A
 Frequencies --   1627.8505              1673.9564              1827.5937
 Red. masses --      5.8702                 4.9953                10.4569
 Frc consts  --      9.1650                 8.2470                20.5784
 IR Inten    --     19.8108                21.1864               337.4732

                     37                     38                     39
                      A                      A                      A
 Frequencies --   3224.2441              3240.8648              3255.0607
 Red. masses --      1.0926                 1.0947                 1.0983
 Frc consts  --      6.6921                 6.7743                 6.8566
 IR Inten    --      5.5485                 7.9931                17.5755

                     40                     41                     42
                      A                      A                      A
 Frequencies --   3459.8051              3682.7544              3721.0017
 Red. masses --      1.0799                 1.0665                 1.0651
 Frc consts  --      7.6163                 8.5219                 8.6888
 IR Inten    --    186.2809               317.3344               183.2327

 - Thermochemistry -
 -------------------
 Temperature   298.150 Kelvin.  Pressure   1.00000 Atm.
 Atom     1 has atomic number  7 and mass  14.00307

 Molecular mass:   140.03477 amu.
 Principal axes and moments of inertia in atomic units:
                           1         2         3
     Eigenvalues --   792.061841450.817762242.87959
           X            0.99952   0.03101  -0.00000
           Y           -0.03101   0.99952   0.00000
           Z            0.00000  -0.00000   1.00000
 This molecule is an asymmetric top.
 Rotational symmetry number  1.
 Warning -- assumption of classical behavior for rotation
           may cause significant error
 Rotational temperatures (Kelvin)      0.10935     0.05970     0.03862
 Rotational constants (GHZ):           2.27854     1.24395     0.80465
 Zero-point vibrational energy     320252.1 (Joules/Mol)
                                   76.54210 (Kcal/Mol)
 Warning -- explicit consideration of  12 degrees of freedom as
           vibrations may cause significant error
 Vibrational temperatures:    136.96   196.72   315.23   355.22   519.57
          (Kelvin)            591.17   599.21   786.45   787.85   823.13
                              847.11   879.74   909.90   973.67  1074.15
                             1121.39  1162.53  1269.91  1287.24  1401.98
                             1467.75  1538.64  1611.73  1661.20  1700.97
                             1793.39  1822.28  1903.92  1965.85  2007.56
                             2068.30  2202.05  2256.68  2342.11  2408.45
                             2629.50  4638.96  4662.88  4683.30  4977.88
                             5298.66  5353.68

 Zero-point correction=                           0.121978 (Hartree/Particle)
 Thermal correction to Energy=                    0.129936
 Thermal correction to Enthalpy=                  0.130880
 Thermal correction to Gibbs Free Energy=         0.089108
 Sum of electronic and zero-point Energies=           -512.359996
 Sum of electronic and thermal Energies=              -512.352038
 Sum of electronic and thermal Enthalpies=            -512.351094
 Sum of electronic and thermal Free Energies=         -512.392866

                     E (Thermal)             CV                S
                      KCal/Mol        Cal/Mol-Kelvin    Cal/Mol-Kelvin
 Total                   81.536             31.047             87.917
 Electronic               0.000              0.000              0.000
 Translational            0.889              2.981             40.722
 Rotational               0.889              2.981             29.334
 Vibrational             79.758             25.086             17.861
 Vibration     1          0.603              1.953              3.550
 Vibration     2          0.614              1.917              2.849
 Vibration     3          0.647              1.812              1.967
 Vibration     4          0.661              1.768              1.753
 Vibration     5          0.735              1.552              1.117
 Vibration     6          0.775              1.447              0.923
 Vibration     7          0.780              1.434              0.904
 Vibration     8          0.902              1.147              0.551
 Vibration     9          0.903              1.145              0.549
 Vibration    10          0.928              1.092              0.500
 Vibration    11          0.946              1.056              0.469
 Vibration    12          0.971              1.008              0.430

 Optimization completed.
    -- Stationary point found.
 Normal termination of Gaussian 09 at Thu Jun 20 12:18:45 2024.
