 Gaussian 09, Revision E.01,
 Gaussian 09:  ES64L-G09RevE.01 30-Nov-2015

 -----------------------------
 # opt freq b3pw91/6-31+g(d,p)
 -----------------------------

 ----------
 [No Title]
 ----------
 Symbolic Z-matrix:
 Charge =  1 Multiplicity = 1

 SCF Done:  E(RB3PW91) =  -512.282890207     A.U. after   14 cycles
 SCF Done:  E(RB3PW91) =  -512.283056521     A.U. after   11 cycles
 SCF Done:  E(RB3PW91) =  -512.283054750     A.U. after   11 cycles
 SCF Done:  E(RB3PW91) =  -512.283059824     A.U. after   11 cycles
 SCF Done:  E(RB3PW91) =  -512.283069803     A.U. after   10 cycles
 Optimization completed.
    -- Stationary point found.
 Normal termination of Gaussian 09 at Sat Dec 14 18:23:29 2024.

 ----------------------------------------------------------------------
 #N Geom=AllCheck Guess=TCheck SCRF=Check GenChk RB3PW91/6-31+G(d,p) Fr
 eq
 ----------------------------------------------------------------------

 Structure from the checkpoint file:  "B3PW913HPA2.chk"
 ----------
 [No Title]
 ----------
 Charge =  1 Multiplicity = 1

                         Standard orientation:
 ---------------------------------------------------------------------
 Center     Atomic      Atomic             Coordinates (Angstroms)
 Number     Number       Type             X           Y           Z
 ---------------------------------------------------------------------
      1          7           0       -0.506264   -1.350327   -0.000041
      2          6           0       -1.835367   -1.420151   -0.000019
      3          6           0       -2.564829   -0.228041    0.000045
      4          6           0       -1.897850    0.981282    0.000086
      5          6           0       -0.483339    1.024065    0.000061
      6          6           0        0.206322   -0.196131   -0.000005
      7          6           0        1.676970   -0.422436   -0.000037
      8          8           0        2.150208   -1.532553   -0.000146
      9          8           0        2.365485    0.726499   -0.000019
     10          8           0        0.090178    2.215464    0.000097
     11          1           0        0.068577   -2.198708   -0.000086
     12          1           0       -2.283240   -2.406742   -0.000053
     13          1           0       -3.648355   -0.267343    0.000064
     14          1           0       -2.435809    1.924655    0.000135
     15          1           0        3.322077    0.542782   -0.000074
     16          1           0        1.062184    2.150847    0.000068
 ---------------------------------------------------------------------

 SCF Done:  E(RB3PW91) =  -512.283069803     A.U. after    1 cycles

 The electronic state is 1-A.
 Alpha  occ. eigenvalues --  -19.39166 -19.37052 -19.32943 -14.62712 -10.51188
 Alpha  occ. eigenvalues --  -10.46936 -10.44742 -10.44342 -10.40254 -10.40061
 Alpha  occ. eigenvalues --   -1.31514  -1.27724  -1.23429  -1.21289  -1.02971
 Alpha  occ. eigenvalues --   -1.00721  -0.90112  -0.86994  -0.84328  -0.78916
 Alpha  occ. eigenvalues --   -0.75849  -0.72239  -0.70262  -0.67944  -0.67465
 Alpha  occ. eigenvalues --   -0.67421  -0.62904  -0.61424  -0.60569  -0.59772
 Alpha  occ. eigenvalues --   -0.59515  -0.55094  -0.52154  -0.50026  -0.48455
 Alpha  occ. eigenvalues --   -0.45076
 Alpha virt. eigenvalues --   -0.27837  -0.22693  -0.15124  -0.14031  -0.12516
 Alpha virt. eigenvalues --   -0.10226  -0.09910  -0.08634  -0.07798  -0.07323
 Alpha virt. eigenvalues --   -0.05118  -0.05055  -0.04222  -0.03554  -0.03149

 Mulliken charges:
               1
     1  N   -0.143083
     2  C   -0.223215
     3  C    0.133045
     4  C    0.020710
     5  C    0.346678
     6  C    0.051412
     7  C    0.311159
     8  O   -0.419472
     9  O   -0.564017
    10  O   -0.479980
    11  H    0.384777
    12  H    0.232997
    13  H    0.232773
    14  H    0.231868
    15  H    0.450660
    16  H    0.433687
 Sum of Mulliken charges =   1.00000

 Dipole moment (field-independent basis, Debye):
    X=             -2.5506    Y=             -1.1133    Z=              0.0001  Tot=              2.7829
 Quadrupole moment (field-independent basis, Debye-Ang):
   XX=            -24.8556   YY=            -44.1225   ZZ=            -55.9383
   XY=              9.6929   XZ=             -0.0003   YZ=              0.0001

  Exact polarizability: 109.490   1.429  93.360  -0.002   0.002  40.404
 Approx polarizability: 170.286   0.827 169.001  -0.003   0.005  58.871

                      1                      2                      3
                      A                      A                      A
 Frequencies --     96.1062               136.2875               215.6986
 Red. masses --     10.3477                 4.5326                 6.3227
 Frc consts  --      0.0563                 0.0496                 0.1733
 IR Inten    --      4.6176                 0.0213                 7.4278

                      4                      5                      6
                      A                      A                      A
 Frequencies --    246.5668               360.1519               411.7470
 Red. masses --      4.7792                 7.6798                 6.8977
 Frc consts  --      0.1712                 0.5869                 0.6890
 IR Inten    --      2.2571                 7.0060                14.0321

                      7                      8                      9
                      A                      A                      A
 Frequencies --    414.6736               546.1045               549.1026
 Red. masses --      3.3455                 2.9919                 5.9842
 Frc consts  --      0.3389                 0.5257                 1.0631
 IR Inten    --     10.0891                 5.0003                 2.5186

                     10                     11                     12
                      A                      A                      A
 Frequencies --    571.6573               590.6867               618.6925
 Red. masses --      6.6297                 1.3687                 1.1047
 Frc consts  --      1.2765                 0.2814                 0.2491
 IR Inten    --     13.2909               122.0127                61.7891

                     13                     14                     15
                      A                      A                      A
 Frequencies --    631.6671               678.5742               751.6419
 Red. masses --      5.1117                 2.9938                 4.5511
 Frc consts  --      1.2017                 0.8122                 1.5149
 IR Inten    --     33.5285               102.2707                14.4752

                     16                     17                     18
                      A                      A                      A
 Frequencies --    781.1792               808.6855               884.7353
 Red. masses --      9.6521                 1.3538                 5.8952
 Frc consts  --      3.4704                 0.5216                 2.7188
 IR Inten    --     20.4614                75.4036                18.9675

                     19                     20                     21
                      A                      A                      A
 Frequencies --    897.9428               975.8929              1018.1465
 Red. masses --      1.2642                 1.3035                 1.3182
 Frc consts  --      0.6006                 0.7314                 0.8051
 IR Inten    --     10.4774                13.4571                 0.0101

                     22                     23                     24
                      A                      A                      A
 Frequencies --   1074.4128              1122.4377              1165.5601
 Red. masses --      2.3476                 2.1169                 2.5396
 Frc consts  --      1.5967                 1.5713                 2.0327
 IR Inten    --     18.5880                14.2466                84.1784

                     25                     26                     27
                      A                      A                      A
 Frequencies --   1184.6159              1248.6159              1268.7252
 Red. masses --      1.3534                 1.3068                 1.4799
 Frc consts  --      1.1190                 1.2004                 1.4035
 IR Inten    --     89.3754                21.6241               241.1649

                     28                     29                     30
                      A                      A                      A
 Frequencies --   1342.2161              1369.5927              1402.1622
 Red. masses --      3.8170                 1.5206                 2.3032
 Frc consts  --      4.0515                 1.6805                 2.6679
 IR Inten    --    143.5713                52.1077                78.1398

                     31                     32                     33
                      A                      A                      A
 Frequencies --   1456.9544              1539.5792              1574.6507
 Red. masses --      5.2102                 3.0334                 2.6391
 Frc consts  --      6.5163                 4.2363                 3.8554
 IR Inten    --     16.0064                43.4674               264.3751

                     34                     35                     36
                      A                      A                      A
 Frequencies --   1643.1761              1689.7564              1849.5017
 Red. masses --      6.2123                 5.5002                10.6238
 Frc consts  --      9.8826                 9.2529                21.4112
 IR Inten    --     24.7620                28.1858               335.0593

                     37                     38                     39
                      A                      A                      A
 Frequencies --   3234.0966              3251.4759              3265.1738
 Red. masses --      1.0927                 1.0948                 1.0989
 Frc consts  --      6.7337                 6.8192                 6.9028
 IR Inten    --      6.1106                 8.7121                19.0635

                     40                     41                     42
                      A                      A                      A
 Frequencies --   3469.9674              3701.6289              3751.4484
 Red. masses --      1.0799                 1.0665                 1.0651
 Frc consts  --      7.6613                 8.6100                 8.8315
 IR Inten    --    189.1813               312.4010               200.5315

 - Thermochemistry -
 -------------------
 Temperature   298.150 Kelvin.  Pressure   1.00000 Atm.
 Atom     1 has atomic number  7 and mass  14.00307

 Molecular mass:   140.03477 amu.
 Principal axes and moments of inertia in atomic units:
                           1         2         3
     Eigenvalues --   788.907461441.989202230.89666
           X            0.99952   0.03103   0.00002
           Y           -0.03103   0.99952  -0.00005
           Z           -0.00003   0.00005   1.00000
 This molecule is an asymmetric top.
 Rotational symmetry number  1.
 Warning -- assumption of classical behavior for rotation
           may cause significant error
 Rotational temperatures (Kelvin)      0.10979     0.06007     0.03882
 Rotational constants (GHZ):           2.28765     1.25156     0.80898
 Zero-point vibrational energy     321745.7 (Joules/Mol)
                                   76.89908 (Kcal/Mol)
 Warning -- explicit consideration of  12 degrees of freedom as
           vibrations may cause significant error
 Vibrational temperatures:    138.28   196.09   310.34   354.75   518.18
          (Kelvin)            592.41   596.62   785.72   790.04   822.49
                              849.87   890.16   908.83   976.32  1081.44
                             1123.94  1163.52  1272.94  1291.94  1404.09
                             1464.88  1545.84  1614.94  1676.98  1704.40
                             1796.48  1825.41  1931.15  1970.54  2017.40
                             2096.23  2215.11  2265.57  2364.16  2431.18
                             2661.02  4653.14  4678.14  4697.85  4992.50
                             5325.81  5397.49

 Zero-point correction=                           0.122546 (Hartree/Particle)
 Thermal correction to Energy=                    0.130498
 Thermal correction to Enthalpy=                  0.131442
 Thermal correction to Gibbs Free Energy=         0.089683
 Sum of electronic and zero-point Energies=           -512.160523
 Sum of electronic and thermal Energies=              -512.152572
 Sum of electronic and thermal Enthalpies=            -512.151628
 Sum of electronic and thermal Free Energies=         -512.193387

                     E (Thermal)             CV                S
                      KCal/Mol        Cal/Mol-Kelvin    Cal/Mol-Kelvin
 Total                   81.888             30.967             87.889
 Electronic               0.000              0.000              0.000
 Translational            0.889              2.981             40.722
 Rotational               0.889              2.981             29.319
 Vibrational             80.111             25.005             17.848
 Vibration     1          0.603              1.952              3.532
 Vibration     2          0.614              1.917              2.855
 Vibration     3          0.645              1.817              1.995
 Vibration     4          0.661              1.768              1.755
 Vibration     5          0.735              1.554              1.121
 Vibration     6          0.776              1.445              0.920
 Vibration     7          0.778              1.438              0.910
 Vibration     8          0.901              1.148              0.552
 Vibration     9          0.904              1.142              0.546
 Vibration    10          0.928              1.093              0.501
 Vibration    11          0.948              1.052              0.466
 Vibration    12          0.979              0.992              0.419

 Optimization completed.
    -- Stationary point found.
 Normal termination of Gaussian 09 at Sat Dec 14 18:24:28 2024.
