 Gaussian 09, Revision E.01,
 Gaussian 09:  ES64L-G09RevE.01 30-Nov-2015

 -----------------------------
 # opt freq b3pw91/6-31+g(d,p)
 -----------------------------

 ----------
 [No Title]
 ----------
 Symbolic Z-matrix:
 Charge =  0 Multiplicity = 1

 SCF Done:  E(RB3PW91) =  -511.921235058     A.U. after   14 cycles
 SCF Done:  E(RB3PW91) =  -511.921470501     A.U. after   12 cycles
 SCF Done:  E(RB3PW91) =  -511.921574369     A.U. after   11 cycles
 SCF Done:  E(RB3PW91) =  -511.921600944     A.U. after   10 cycles
 SCF Done:  E(RB3PW91) =  -511.921604542     A.U. after   10 cycles
 SCF Done:  E(RB3PW91) =  -511.921604256     A.U. after    9 cycles
 SCF Done:  E(RB3PW91) =  -511.921604718     A.U. after    9 cycles
 Optimization completed.
    -- Stationary point found.
 Normal termination of Gaussian 09 at Sat Dec 14 17:41:45 2024.

 ----------------------------------------------------------------------
 #N Geom=AllCheck Guess=TCheck SCRF=Check GenChk RB3PW91/6-31+G(d,p) Fr
 eq
 ----------------------------------------------------------------------

 Structure from the checkpoint file:  "B3PW913HPA.chk"
 ----------
 [No Title]
 ----------
 Charge =  0 Multiplicity = 1

                         Standard orientation:
 ---------------------------------------------------------------------
 Center     Atomic      Atomic             Coordinates (Angstroms)
 Number     Number       Type             X           Y           Z
 ---------------------------------------------------------------------
      1          7           0       -0.443132   -1.449437    0.000028
      2          6           0       -1.766278   -1.476489    0.000035
      3          6           0       -2.551429   -0.310702    0.000021
      4          6           0       -1.929646    0.923389    0.000002
      5          6           0       -0.526538    0.973743   -0.000002
      6          6           0        0.172942   -0.256936    0.000010
      7          6           0        1.647524   -0.226491   -0.000008
      8          8           0        2.292053    0.825120   -0.000065
      9          8           0        2.248751   -1.414390    0.000002
     10          8           0        0.074676    2.166451   -0.000011
     11          1           0       -2.232005   -2.459282    0.000050
     12          1           0       -3.635166   -0.383999    0.000026
     13          1           0       -2.487249    1.854572   -0.000006
     14          1           0        3.203854   -1.241045   -0.000027
     15          1           0        1.049199    1.999280    0.000006
 ---------------------------------------------------------------------

 SCF Done:  E(RB3PW91) =  -511.921604718     A.U. after    1 cycles

 The electronic state is 1-A.
 Alpha  occ. eigenvalues --  -19.21572 -19.18764 -19.16666 -14.35040 -10.33779
 Alpha  occ. eigenvalues --  -10.27563 -10.24026 -10.22555 -10.21513 -10.21225
 Alpha  occ. eigenvalues --   -1.14587  -1.09383  -1.04729  -0.97237  -0.82859
 Alpha  occ. eigenvalues --   -0.79658  -0.70601  -0.65453  -0.64333  -0.56955
 Alpha  occ. eigenvalues --   -0.55908  -0.52463  -0.50666  -0.48774  -0.48607
 Alpha  occ. eigenvalues --   -0.43885  -0.43663  -0.42536  -0.41146  -0.40485
 Alpha  occ. eigenvalues --   -0.38785  -0.35049  -0.31983  -0.30766  -0.27610
 Alpha  occ. eigenvalues --   -0.25938
 Alpha virt. eigenvalues --   -0.08178  -0.03214   0.00565   0.01466   0.02296
 Alpha virt. eigenvalues --    0.03531   0.03968   0.05807   0.05947   0.06383
 Alpha virt. eigenvalues --    0.08634   0.08843   0.09446   0.10086   0.11140

 Mulliken charges:
               1
     1  N   -0.138525
     2  C   -0.234840
     3  C    0.103318
     4  C    0.014069
     5  C    0.005621
     6  C   -0.004682
     7  C    0.454896
     8  O   -0.547445
     9  O   -0.415404
    10  O   -0.530513
    11  H    0.150729
    12  H    0.166512
    13  H    0.176143
    14  H    0.387206
    15  H    0.412916
 Sum of Mulliken charges =  -0.00000

 Dipole moment (field-independent basis, Debye):
    X=             -1.2163    Y=             -0.4394    Z=              0.0001  Tot=              1.2932
 Quadrupole moment (field-independent basis, Debye-Ang):
   XX=            -43.0922   YY=            -62.1211   ZZ=            -58.0067
   XY=             -2.4194   XZ=              0.0001   YZ=              0.0003

  Exact polarizability: 118.088   3.287  96.541  -0.001  -0.001  45.725
 Approx polarizability: 180.247   8.648 168.873  -0.001  -0.002  66.261

                      1                      2                      3
                      A                      A                      A
 Frequencies --     92.7976               139.0094               243.8867
 Red. masses --      8.5610                 6.1532                 6.4081
 Frc consts  --      0.0434                 0.0701                 0.2246
 IR Inten    --      1.4261                 2.8541                 2.8488

                      4                      5                      6
                      A                      A                      A
 Frequencies --    255.6549               363.6042               434.8563
 Red. masses --      4.9712                 7.5001                 3.8374
 Frc consts  --      0.1914                 0.5842                 0.4275
 IR Inten    --      1.6851                11.7559                 0.4564

                      7                      8                      9
                      A                      A                      A
 Frequencies --    443.2970               529.8324               551.7334
 Red. masses --      9.7820                 5.5709                 3.7699
 Frc consts  --      1.1326                 0.9214                 0.6761
 IR Inten    --      2.7519                 3.8781                 0.5428

                     10                     11                     12
                      A                      A                      A
 Frequencies --    577.0271               613.1343               650.6733
 Red. masses --      7.5012                 1.2495                 6.1422
 Frc consts  --      1.4715                 0.2768                 1.5321
 IR Inten    --      6.3184                74.6747                69.2540

                     13                     14                     15
                      A                      A                      A
 Frequencies --    730.3394               761.9106               815.4762
 Red. masses --      3.3181                 4.6097                 2.0281
 Frc consts  --      1.0428                 1.5766                 0.7946
 IR Inten    --     60.7399                27.0573                32.5299

                     16                     17                     18
                      A                      A                      A
 Frequencies --    816.8945               835.9615               878.8105
 Red. masses --      2.2971                 1.2387                 7.0344
 Frc consts  --      0.9031                 0.5100                 3.2009
 IR Inten    --    106.5688                10.9293                 7.8815

                     19                     20                     21
                      A                      A                      A
 Frequencies --    940.6899               997.8437              1073.2780
 Red. masses --      1.3732                 1.3376                 2.3259
 Frc consts  --      0.7159                 0.7847                 1.5785
 IR Inten    --      0.0002                 0.8090                 1.7711

                     22                     23                     24
                      A                      A                      A
 Frequencies --   1117.4085              1155.9795              1201.1410
 Red. masses --      3.1033                 1.4490                 1.8517
 Frc consts  --      2.2829                 1.1408                 1.5740
 IR Inten    --     60.0179                 2.7007               360.6518

                     25                     26                     27
                      A                      A                      A
 Frequencies --   1272.6730              1314.8073              1365.2060
 Red. masses --      1.7765                 2.4827                 2.1050
 Frc consts  --      1.6954                 2.5287                 2.3115
 IR Inten    --      1.1014                93.8888                19.6582

                     28                     29                     30
                      A                      A                      A
 Frequencies --   1386.9620              1467.8983              1495.4517
 Red. masses --      2.9366                 3.3658                 3.0729
 Frc consts  --      3.3283                 4.2730                 4.0489
 IR Inten    --     53.5963               178.5652               217.2822

                     31                     32                     33
                      A                      A                      A
 Frequencies --   1509.0839              1629.7626              1657.3425
 Red. masses --      2.9462                 4.2964                 7.3349
 Frc consts  --      3.9531                 6.7237                11.8705
 IR Inten    --     19.3162                27.1067                 6.5429

                     34                     35                     36
                      A                      A                      A
 Frequencies --   1748.2407              3190.8978              3213.7997
 Red. masses --      7.5813                 1.0891                 1.0916
 Frc consts  --     13.6520                 6.5333                 6.6426
 IR Inten    --    359.1941                 9.2528                13.1089

                     37                     38                     39
                      A                      A                      A
 Frequencies --   3231.0614              3387.7091              3786.8811
 Red. masses --      1.0967                 1.0681                 1.0643
 Frc consts  --      6.7458                 7.2224                 8.9926
 IR Inten    --      3.0829               368.6690               114.0984

 - Thermochemistry -
 -------------------
 Temperature   298.150 Kelvin.  Pressure   1.00000 Atm.
 Atom     1 has atomic number  7 and mass  14.00307

 Molecular mass:   139.02694 amu.
 Principal axes and moments of inertia in atomic units:
                           1         2         3
     Eigenvalues --   760.652951428.991242189.64419
           X            1.00000   0.00208   0.00001
           Y           -0.00208   1.00000   0.00001
           Z           -0.00001  -0.00001   1.00000
 This molecule is an asymmetric top.
 Rotational symmetry number  1.
 Warning -- assumption of classical behavior for rotation
           may cause significant error
 Rotational temperatures (Kelvin)      0.11387     0.06061     0.03956
 Rotational constants (GHZ):           2.37262     1.26295     0.82422
 Zero-point vibrational energy     286380.1 (Joules/Mol)
                                   68.44649 (Kcal/Mol)
 Warning -- explicit consideration of  11 degrees of freedom as
           vibrations may cause significant error
 Vibrational temperatures:    133.51   200.00   350.90   367.83   523.14
          (Kelvin)            625.66   637.80   762.31   793.82   830.21
                              882.16   936.17  1050.79  1096.22  1173.29
                             1175.33  1202.76  1264.41  1353.44  1435.67
                             1544.21  1607.70  1663.19  1728.17  1831.09
                             1891.71  1964.22  1995.53  2111.98  2151.62
                             2171.23  2344.86  2384.54  2515.33  4590.98
                             4623.94  4648.77  4874.15  5448.47

 Zero-point correction=                           0.109076 (Hartree/Particle)
 Thermal correction to Energy=                    0.116737
 Thermal correction to Enthalpy=                  0.117682
 Thermal correction to Gibbs Free Energy=         0.076423
 Sum of electronic and zero-point Energies=           -511.812528
 Sum of electronic and thermal Energies=              -511.804867
 Sum of electronic and thermal Enthalpies=            -511.803923
 Sum of electronic and thermal Free Energies=         -511.845182

                     E (Thermal)             CV                S
                      KCal/Mol        Cal/Mol-Kelvin    Cal/Mol-Kelvin
 Total                   73.254             29.586             86.836
 Electronic               0.000              0.000              0.000
 Translational            0.889              2.981             40.700
 Rotational               0.889              2.981             29.255
 Vibrational             71.476             23.624             16.881
 Vibration     1          0.602              1.954              3.600
 Vibration     2          0.615              1.914              2.817
 Vibration     3          0.659              1.773              1.774
 Vibration     4          0.666              1.753              1.691
 Vibration     5          0.737              1.547              1.107
 Vibration     6          0.795              1.394              0.843
 Vibration     7          0.803              1.376              0.816
 Vibration     8          0.885              1.184              0.588
 Vibration     9          0.907              1.136              0.541
 Vibration    10          0.933              1.081              0.491
 Vibration    11          0.972              1.004              0.428

 Optimization completed.
    -- Stationary point found.
 Normal termination of Gaussian 09 at Sat Dec 14 17:42:43 2024.
