 Gaussian 09, Revision E.01,
 Gaussian 09:  ES64L-G09RevE.01 30-Nov-2015

 --------------------------------
 # opt freq cam-b3lyp/6-31+g(d,p)
 --------------------------------

 ----------
 [No Title]
 ----------
 Symbolic Z-matrix:
 Charge =  1 Multiplicity = 1

 SCF Done:  E(RCAM-B3LYP) =  -512.256213471     A.U. after   15 cycles
 SCF Done:  E(RCAM-B3LYP) =  -512.256617253     A.U. after   12 cycles
 SCF Done:  E(RCAM-B3LYP) =  -512.256634224     A.U. after   10 cycles
 SCF Done:  E(RCAM-B3LYP) =  -512.256642161     A.U. after   10 cycles
 Optimization completed.
    -- Stationary point found.
 Normal termination of Gaussian 09 at Thu Jun 20 12:22:00 2024.

 ----------------------------------------------------------------------
 #N Geom=AllCheck Guess=TCheck SCRF=Check GenChk RCAM-B3LYP/6-31+G(d,p)
  Freq
 ----------------------------------------------------------------------

 Structure from the checkpoint file:  "camb3lyp3HPAyanggd3.chk"
 ----------
 [No Title]
 ----------
 Charge =  1 Multiplicity = 1

                         Standard orientation:
 ---------------------------------------------------------------------
 Center     Atomic      Atomic             Coordinates (Angstroms)
 Number     Number       Type             X           Y           Z
 ---------------------------------------------------------------------
      1          7           0        0.512072   -1.349606    0.000031
      2          6           0        1.837942   -1.412491    0.000008
      3          6           0        2.561871   -0.219400   -0.000031
      4          6           0        1.890659    0.982582   -0.000046
      5          6           0        0.478297    1.018930   -0.000028
      6          6           0       -0.202406   -0.196935    0.000014
      7          6           0       -1.673090   -0.424070    0.000044
      8          8           0       -2.143346   -1.531327    0.000037
      9          8           0       -2.365705    0.719211   -0.000016
     10          8           0       -0.097414    2.210389   -0.000012
     11          1           0       -0.057407   -2.201394    0.000061
     12          1           0        2.291217   -2.395924    0.000026
     13          1           0        3.644653   -0.253814   -0.000047
     14          1           0        2.421684    1.928928   -0.000071
     15          1           0       -3.323109    0.535917   -0.000033
     16          1           0       -1.069455    2.155652    0.000012
 ---------------------------------------------------------------------

 SCF Done:  E(RCAM-B3LYP) =  -512.256642161     A.U. after    1 cycles

 The electronic state is 1-A.
 Alpha  occ. eigenvalues --  -19.47397 -19.44897 -19.41327 -14.71121 -10.60376
 Alpha  occ. eigenvalues --  -10.55559 -10.53265 -10.53190 -10.48858 -10.48561
 Alpha  occ. eigenvalues --   -1.39415  -1.35058  -1.31297  -1.29144  -1.10882
 Alpha  occ. eigenvalues --   -1.08521  -0.97506  -0.94330  -0.91465  -0.85882
 Alpha  occ. eigenvalues --   -0.82795  -0.79137  -0.77051  -0.74867  -0.74693
 Alpha  occ. eigenvalues --   -0.74216  -0.69847  -0.68091  -0.66997  -0.66205
 Alpha  occ. eigenvalues --   -0.65972  -0.61336  -0.58433  -0.55534  -0.54952
 Alpha  occ. eigenvalues --   -0.50141
 Alpha virt. eigenvalues --   -0.23102  -0.17661  -0.11860  -0.10071  -0.09356
 Alpha virt. eigenvalues --   -0.08305  -0.07687  -0.06434  -0.06238  -0.05364
 Alpha virt. eigenvalues --   -0.03000  -0.02993  -0.01893  -0.01607  -0.00436

 Mulliken charges:
               1
     1  N   -0.223407
     2  C   -0.131543
     3  C    0.120395
     4  C   -0.006281
     5  C    0.397682
     6  C    0.086175
     7  C    0.388303
     8  O   -0.442543
     9  O   -0.583274
    10  O   -0.518828
    11  H    0.379505
    12  H    0.220287
    13  H    0.213153
    14  H    0.215809
    15  H    0.450906
    16  H    0.433660
 Sum of Mulliken charges =   1.00000

 Dipole moment (field-independent basis, Debye):
    X=              2.6595    Y=             -1.2509    Z=              0.0000  Tot=              2.9390
 Quadrupole moment (field-independent basis, Debye-Ang):
   XX=            -25.5151   YY=            -45.1812   ZZ=            -56.3057
   XY=             -9.8127   XZ=             -0.0001   YZ=             -0.0002

  Exact polarizability: 106.704  -1.272  92.421  -0.001  -0.001  40.786
 Approx polarizability: 123.622  -0.905 126.089  -0.001  -0.001  51.999

                      1                      2                      3
                      A                      A                      A
 Frequencies --     96.7937               140.1934               223.1787
 Red. masses --     10.2584                 4.5364                 6.3602
 Frc consts  --      0.0566                 0.0525                 0.1866
 IR Inten    --      5.2042                 0.0333                 7.4938

                      4                      5                      6
                      A                      A                      A
 Frequencies --    250.2060               366.1972               414.7182
 Red. masses --      4.7828                 7.7079                 6.8927
 Frc consts  --      0.1764                 0.6090                 0.6985
 IR Inten    --      1.9156                 7.1708                14.6190

                      7                      8                      9
                      A                      A                      A
 Frequencies --    421.6635               554.9002               555.2960
 Red. masses --      3.3103                 2.9266                 5.9731
 Frc consts  --      0.3468                 0.5309                 1.0852
 IR Inten    --     10.7195                 7.1296                 2.7602

                     10                     11                     12
                      A                      A                      A
 Frequencies --    578.5973               593.3509               605.4485
 Red. masses --      6.6378                 1.2825                 1.1729
 Frc consts  --      1.3093                 0.2660                 0.2533
 IR Inten    --     13.1708               172.9232                12.2664

                     13                     14                     15
                      A                      A                      A
 Frequencies --    639.8369               687.6548               760.2046
 Red. masses --      5.0470                 2.9616                 4.5032
 Frc consts  --      1.2174                 0.8251                 1.5333
 IR Inten    --     36.2069               107.1568                14.7712

                     16                     17                     18
                      A                      A                      A
 Frequencies --    793.7769               822.2139               893.3362
 Red. masses --      9.3014                 1.3501                 5.8572
 Frc consts  --      3.4530                 0.5378                 2.7540
 IR Inten    --     20.0688                79.1640                21.3960

                     19                     20                     21
                      A                      A                      A
 Frequencies --    913.5095              1000.6276              1040.7800
 Red. masses --      1.2702                 1.3141                 1.3319
 Frc consts  --      0.6245                 0.7752                 0.8500
 IR Inten    --     10.4267                12.2490                 0.0183

                     22                     23                     24
                      A                      A                      A
 Frequencies --   1084.7250              1132.9767              1177.3853
 Red. masses --      2.3368                 2.0861                 1.9346
 Frc consts  --      1.6200                 1.5777                 1.5801
 IR Inten    --     16.2937                19.0713                53.5649

                     25                     26                     27
                      A                      A                      A
 Frequencies --   1193.0473              1258.6611              1277.6262
 Red. masses --      1.6285                 1.3163                 1.4457
 Frc consts  --      1.3657                 1.2287                 1.3904
 IR Inten    --    123.3231                19.8837               254.9649

                     28                     29                     30
                      A                      A                      A
 Frequencies --   1336.2977              1379.1810              1413.7300
 Red. masses --      4.0532                 1.5191                 2.4503
 Frc consts  --      4.2643                 1.7024                 2.8854
 IR Inten    --    146.1767                46.2188                93.4874

                     31                     32                     33
                      A                      A                      A
 Frequencies --   1457.8348              1556.2083              1592.5630
 Red. masses --      4.3403                 3.2397                 2.5627
 Frc consts  --      5.4349                 4.6226                 3.8295
 IR Inten    --     21.8913                79.5733               248.1765

                     34                     35                     36
                      A                      A                      A
 Frequencies --   1667.3931              1716.3098              1875.0862
 Red. masses --      6.4709                 5.5087                10.8285
 Frc consts  --     10.5997                 9.5607                22.4316
 IR Inten    --     28.2453                22.0561               365.9827

                     37                     38                     39
                      A                      A                      A
 Frequencies --   3244.5275              3261.2742              3273.6777
 Red. masses --      1.0935                 1.0955                 1.0996
 Frc consts  --      6.7821                 6.8649                 6.9433
 IR Inten    --      7.1519                 9.8461                21.4720

                     40                     41                     42
                      A                      A                      A
 Frequencies --   3481.2329              3727.1732              3754.8174
 Red. masses --      1.0804                 1.0665                 1.0650
 Frc consts  --      7.7145                 8.7293                 8.8468
 IR Inten    --    206.4361               364.1835               181.3951

 - Thermochemistry -
 -------------------
 Temperature   298.150 Kelvin.  Pressure   1.00000 Atm.
 Atom     1 has atomic number  7 and mass  14.00307

 Molecular mass:   140.03477 amu.
 Principal axes and moments of inertia in atomic units:
                           1         2         3
     Eigenvalues --   785.289311438.354172223.64348
           X            0.99952  -0.03094   0.00001
           Y            0.03094   0.99952   0.00002
           Z           -0.00001  -0.00002   1.00000
 This molecule is an asymmetric top.
 Rotational symmetry number  1.
 Warning -- assumption of classical behavior for rotation
           may cause significant error
 Rotational temperatures (Kelvin)      0.11030     0.06022     0.03895
 Rotational constants (GHZ):           2.29819     1.25473     0.81161
 Zero-point vibrational energy     324273.0 (Joules/Mol)
                                   77.50311 (Kcal/Mol)
 Warning -- explicit consideration of  12 degrees of freedom as
           vibrations may cause significant error
 Vibrational temperatures:    139.26   201.71   321.10   359.99   526.88
          (Kelvin)            596.69   606.68   798.38   798.95   832.47
                              853.70   871.10   920.58   989.38  1093.76
                             1142.07  1182.98  1285.31  1314.33  1439.68
                             1497.45  1560.68  1630.10  1693.99  1716.53
                             1810.93  1838.22  1922.63  1984.33  2034.04
                             2097.50  2239.03  2291.34  2399.00  2469.38
                             2697.83  4668.15  4692.24  4710.09  5008.71
                             5362.56  5402.34

 Zero-point correction=                           0.123509 (Hartree/Particle)
 Thermal correction to Energy=                    0.131376
 Thermal correction to Enthalpy=                  0.132320
 Thermal correction to Gibbs Free Energy=         0.090729
 Sum of electronic and zero-point Energies=           -512.133133
 Sum of electronic and thermal Energies=              -512.125266
 Sum of electronic and thermal Enthalpies=            -512.124322
 Sum of electronic and thermal Free Energies=         -512.165914

                     E (Thermal)             CV                S
                      KCal/Mol        Cal/Mol-Kelvin    Cal/Mol-Kelvin
 Total                   82.440             30.645             87.536
 Electronic               0.000              0.000              0.000
 Translational            0.889              2.981             40.722
 Rotational               0.889              2.981             29.309
 Vibrational             80.662             24.683             17.506
 Vibration     1          0.603              1.951              3.518
 Vibration     2          0.615              1.913              2.801
 Vibration     3          0.649              1.806              1.933
 Vibration     4          0.663              1.762              1.729
 Vibration     5          0.739              1.542              1.096
 Vibration     6          0.778              1.438              0.910
 Vibration     7          0.784              1.423              0.886
 Vibration     8          0.910              1.129              0.534
 Vibration     9          0.911              1.128              0.533
 Vibration    10          0.935              1.078              0.488
 Vibration    11          0.951              1.046              0.461
 Vibration    12          0.964              1.020              0.440

 Optimization completed.
    -- Stationary point found.
 Normal termination of Gaussian 09 at Thu Jun 20 12:23:26 2024.
