 Gaussian 09, Revision E.01,
 Gaussian 09:  ES64L-G09RevE.01 30-Nov-2015

 --------------------------------
 # opt freq cam-b3lyp/6-31+g(d,p)
 --------------------------------

 ----------
 [No Title]
 ----------
 Symbolic Z-matrix:
 Charge =  0 Multiplicity = 1

 SCF Done:  E(RCAM-B3LYP) =  -511.899195359     A.U. after   16 cycles
 SCF Done:  E(RCAM-B3LYP) =  -511.899589997     A.U. after   12 cycles
 SCF Done:  E(RCAM-B3LYP) =  -511.899593191     A.U. after   13 cycles
 SCF Done:  E(RCAM-B3LYP) =  -511.899641304     A.U. after   12 cycles
 SCF Done:  E(RCAM-B3LYP) =  -511.899636354     A.U. after   11 cycles
 SCF Done:  E(RCAM-B3LYP) =  -511.899642168     A.U. after   10 cycles
 Optimization completed.
    -- Stationary point found.
 Normal termination of Gaussian 09 at Thu Jun 20 11:52:14 2024.

 ----------------------------------------------------------------------
 #N Geom=AllCheck Guess=TCheck SCRF=Check GenChk RCAM-B3LYP/6-31+G(d,p)
  Freq
 ----------------------------------------------------------------------

 Structure from the checkpoint file:  "camb3lyp3HPAgd3.chk"
 ----------
 [No Title]
 ----------
 Charge =  0 Multiplicity = 1

                         Standard orientation:
 ---------------------------------------------------------------------
 Center     Atomic      Atomic             Coordinates (Angstroms)
 Number     Number       Type             X           Y           Z
 ---------------------------------------------------------------------
      1          7           0        0.441820   -1.443519    0.000059
      2          6           0        1.760984   -1.477119    0.000026
      3          6           0        2.546259   -0.314443   -0.000033
      4          6           0        1.928027    0.916603   -0.000041
      5          6           0        0.528273    0.968796    0.000011
      6          6           0       -0.171976   -0.252403    0.000051
      7          6           0       -1.648479   -0.224287   -0.000001
      8          8           0       -2.292712    0.821714   -0.000258
      9          8           0       -2.246846   -1.410243    0.000098
     10          8           0       -0.065983    2.166992    0.000082
     11          1           0        2.223698   -2.459756    0.000031
     12          1           0        3.628501   -0.390646   -0.000061
     13          1           0        2.484604    1.847155   -0.000063
     14          1           0       -3.203818   -1.245564   -0.000011
     15          1           0       -1.039921    2.022858    0.000230
 ---------------------------------------------------------------------

 SCF Done:  E(RCAM-B3LYP) =  -511.899642168     A.U. after    1 cycles

 The electronic state is 1-A.
 Alpha  occ. eigenvalues --  -19.29916 -19.26847 -19.25003 -14.43334 -10.43024
 Alpha  occ. eigenvalues --  -10.36236 -10.32585 -10.31164 -10.30044 -10.29725
 Alpha  occ. eigenvalues --   -1.22560  -1.16927  -1.12474  -1.05284  -0.90736
 Alpha  occ. eigenvalues --   -0.87465  -0.78035  -0.72812  -0.71508  -0.63858
 Alpha  occ. eigenvalues --   -0.62989  -0.59415  -0.57479  -0.56034  -0.55513
 Alpha  occ. eigenvalues --   -0.50775  -0.50263  -0.49112  -0.47673  -0.46966
 Alpha  occ. eigenvalues --   -0.45304  -0.41416  -0.38457  -0.36129  -0.33871
 Alpha  occ. eigenvalues --   -0.31023
 Alpha virt. eigenvalues --   -0.03381   0.01641   0.02394   0.03217   0.05151
 Alpha virt. eigenvalues --    0.05645   0.06979   0.07411   0.07726   0.07985
 Alpha virt. eigenvalues --    0.09875   0.10288   0.10996   0.11533   0.12767

 Mulliken charges:
               1
     1  N   -0.226787
     2  C   -0.169129
     3  C    0.097061
     4  C   -0.020327
     5  C    0.070076
     6  C    0.044450
     7  C    0.529069
     8  O   -0.570973
     9  O   -0.437029
    10  O   -0.570028
    11  H    0.137962
    12  H    0.148206
    13  H    0.160052
    14  H    0.391244
    15  H    0.416152
 Sum of Mulliken charges =   0.00000

 Dipole moment (field-independent basis, Debye):
    X=              1.2662    Y=             -0.4989    Z=              0.0004  Tot=              1.3609
 Quadrupole moment (field-independent basis, Debye-Ang):
   XX=            -43.7663   YY=            -63.1775   ZZ=            -58.4416
   XY=              2.3609   XZ=             -0.0014   YZ=              0.0015

  Exact polarizability: 114.619  -3.395  95.556   0.000  -0.001  46.253
 Approx polarizability: 131.077  -6.357 126.894   0.000  -0.003  58.110

                      1                      2                      3
                      A                      A                      A
 Frequencies --     90.6800               142.6558               248.1889
 Red. masses --      9.0065                 5.9736                 6.4337
 Frc consts  --      0.0436                 0.0716                 0.2335
 IR Inten    --      1.1842                 3.2115                 2.8287

                      4                      5                      6
                      A                      A                      A
 Frequencies --    260.6071               368.5358               444.9022
 Red. masses --      4.9650                 7.5611                 3.7787
 Frc consts  --      0.1987                 0.6051                 0.4407
 IR Inten    --      1.4326                11.3906                 0.5373

                      7                      8                      9
                      A                      A                      A
 Frequencies --    445.5761               535.2055               563.0093
 Red. masses --      9.6654                 5.5438                 3.6993
 Frc consts  --      1.1306                 0.9356                 0.6909
 IR Inten    --      3.1772                 4.0856                 1.2990

                     10                     11                     12
                      A                      A                      A
 Frequencies --    585.1258               618.3284               659.8319
 Red. masses --      7.5158                 1.2582                 6.0708
 Frc consts  --      1.5161                 0.2834                 1.5573
 IR Inten    --      6.3536                77.1204                73.0660

                     13                     14                     15
                      A                      A                      A
 Frequencies --    740.4508               770.8734               792.4248
 Red. masses --      3.2136                 4.5704                 1.0790
 Frc consts  --      1.0381                 1.6002                 0.3992
 IR Inten    --     56.1868                28.9068               133.6606

                     16                     17                     18
                      A                      A                      A
 Frequencies --    833.9862               843.4084               889.1528
 Red. masses --      9.2090                 1.4271                 6.9705
 Frc consts  --      3.7738                 0.5981                 3.2469
 IR Inten    --     19.6569                11.7830                 8.9118

                     19                     20                     21
                      A                      A                      A
 Frequencies --    962.6715              1023.6964              1083.4116
 Red. masses --      1.3794                 1.3564                 2.3401
 Frc consts  --      0.7532                 0.8375                 1.6184
 IR Inten    --      0.1088                 0.7189                 3.9947

                     22                     23                     24
                      A                      A                      A
 Frequencies --   1131.5765              1163.8518              1208.6073
 Red. masses --      2.8260                 1.4707                 2.0004
 Frc consts  --      2.1320                 1.1738                 1.7217
 IR Inten    --     53.4559                 1.0397               390.2778

                     25                     26                     27
                      A                      A                      A
 Frequencies --   1282.3905              1312.7644              1370.7689
 Red. masses --      1.7712                 2.7313                 3.4392
 Frc consts  --      1.7162                 2.7733                 3.8074
 IR Inten    --      3.0448                60.0456                68.5245

                     28                     29                     30
                      A                      A                      A
 Frequencies --   1380.1617              1478.8831              1512.5583
 Red. masses --      1.5937                 3.3209                 3.1927
 Frc consts  --      1.7886                 4.2794                 4.3036
 IR Inten    --     47.5198               179.8982               222.0792

                     31                     32                     33
                      A                      A                      A
 Frequencies --   1527.2582              1655.3752              1684.8904
 Red. masses --      3.0309                 4.7504                 7.4259
 Frc consts  --      4.1654                 7.6696                12.4206
 IR Inten    --     11.6552                22.0489                 5.5772

                     34                     35                     36
                      A                      A                      A
 Frequencies --   1774.7940              3208.2162              3228.8422
 Red. masses --      8.1261                 1.0898                 1.0921
 Frc consts  --     15.0809                 6.6090                 6.7081
 IR Inten    --    392.1546                 7.2889                 9.7417

                     37                     38                     39
                      A                      A                      A
 Frequencies --   3244.2213              3479.8550              3796.5468
 Red. masses --      1.0976                 1.0673                 1.0644
 Frc consts  --      6.8063                 7.6148                 9.0395
 IR Inten    --      2.1744               361.6511               128.7919

 - Thermochemistry -
 -------------------
 Temperature   298.150 Kelvin.  Pressure   1.00000 Atm.
 Atom     1 has atomic number  7 and mass  14.00307

 Molecular mass:   139.02694 amu.
 Principal axes and moments of inertia in atomic units:
                           1         2         3
     Eigenvalues --   758.342651426.125172184.46781
           X            1.00000  -0.00217  -0.00001
           Y            0.00217   1.00000   0.00002
           Z            0.00001  -0.00002   1.00000
 This molecule is an asymmetric top.
 Rotational symmetry number  1.
 Warning -- assumption of classical behavior for rotation
           may cause significant error
 Rotational temperatures (Kelvin)      0.11421     0.06073     0.03965
 Rotational constants (GHZ):           2.37985     1.26549     0.82617
 Zero-point vibrational energy     289163.0 (Joules/Mol)
                                   69.11162 (Kcal/Mol)
 Warning -- explicit consideration of  11 degrees of freedom as
           vibrations may cause significant error
 Vibrational temperatures:    130.47   205.25   357.09   374.95   530.24
          (Kelvin)            640.11   641.08   770.04   810.04   841.86
                              889.64   949.35  1065.34  1109.11  1140.12
                             1199.92  1213.48  1279.29  1385.07  1472.87
                             1558.79  1628.08  1674.52  1738.91  1845.07
                             1888.77  1972.23  1985.74  2127.78  2176.23
                             2197.38  2381.71  2424.18  2553.53  4615.90
                             4645.58  4667.70  5006.73  5462.38

 Zero-point correction=                           0.110136 (Hartree/Particle)
 Thermal correction to Energy=                    0.117722
 Thermal correction to Enthalpy=                  0.118667
 Thermal correction to Gibbs Free Energy=         0.077533
 Sum of electronic and zero-point Energies=           -511.789506
 Sum of electronic and thermal Energies=              -511.781920
 Sum of electronic and thermal Enthalpies=            -511.780976
 Sum of electronic and thermal Free Energies=         -511.822109

                     E (Thermal)             CV                S
                      KCal/Mol        Cal/Mol-Kelvin    Cal/Mol-Kelvin
 Total                   73.872             29.285             86.572
 Electronic               0.000              0.000              0.000
 Translational            0.889              2.981             40.700
 Rotational               0.889              2.981             29.248
 Vibrational             72.094             23.324             16.624
 Vibration     1          0.602              1.956              3.645
 Vibration     2          0.616              1.911              2.768
 Vibration     3          0.662              1.766              1.743
 Vibration     4          0.669              1.745              1.658
 Vibration     5          0.741              1.537              1.086
 Vibration     6          0.804              1.372              0.811
 Vibration     7          0.805              1.371              0.809
 Vibration     8          0.890              1.172              0.576
 Vibration     9          0.919              1.111              0.518
 Vibration    10          0.942              1.064              0.476
 Vibration    11          0.978              0.993              0.419

 Optimization completed.
    -- Stationary point found.
 Normal termination of Gaussian 09 at Thu Jun 20 11:53:37 2024.
