 Gaussian 09, Revision E.01,
 Gaussian 09:  ES64L-G09RevE.01 30-Nov-2015

 ----------------------------
 # opt freq m062x/6-31+g(d,p)
 ----------------------------

 ----------
 [No Title]
 ----------
 Symbolic Z-matrix:
 Charge =  0 Multiplicity = 1

 SCF Done:  E(RM062X) =  -511.914496920     A.U. after   15 cycles
 SCF Done:  E(RM062X) =  -511.914933383     A.U. after   13 cycles
 SCF Done:  E(RM062X) =  -511.915005372     A.U. after   12 cycles
 SCF Done:  E(RM062X) =  -511.915026379     A.U. after   11 cycles
 SCF Done:  E(RM062X) =  -511.915029926     A.U. after   10 cycles
 SCF Done:  E(RM062X) =  -511.915028877     A.U. after   10 cycles
 SCF Done:  E(RM062X) =  -511.915030342     A.U. after   10 cycles
 Optimization completed.
    -- Stationary point found.
 Normal termination of Gaussian 09 at Sun Apr 28 15:35:24 2024.

 ----------------------------------------------------------------------
 #N Geom=AllCheck Guess=TCheck SCRF=Check GenChk RM062X/6-31+G(d,p) Fre
 q
 ----------------------------------------------------------------------

 Structure from the checkpoint file:  "m062x3HPA.chk"
 ----------
 [No Title]
 ----------
 Charge =  0 Multiplicity = 1

                         Standard orientation:
 ---------------------------------------------------------------------
 Center     Atomic      Atomic             Coordinates (Angstroms)
 Number     Number       Type             X           Y           Z
 ---------------------------------------------------------------------
      1          7           0        0.428428   -1.443933   -0.000019
      2          6           0        1.749269   -1.486676   -0.000028
      3          6           0        2.545293   -0.329153   -0.000022
      4          6           0        1.934687    0.908262   -0.000006
      5          6           0        0.533558    0.971421    0.000005
      6          6           0       -0.173573   -0.247254   -0.000004
      7          6           0       -1.656168   -0.216805   -0.000006
      8          8           0       -2.301602    0.823696    0.000014
      9          8           0       -2.243216   -1.408256    0.000018
     10          8           0       -0.043688    2.178540    0.000029
     11          1           0        2.203484   -2.473502   -0.000041
     12          1           0        3.627053   -0.413425   -0.000030
     13          1           0        2.496586    1.836212    0.000001
     14          1           0       -3.200617   -1.253002    0.000034
     15          1           0       -1.015853    2.060634    0.000043
 ---------------------------------------------------------------------

 SCF Done:  E(RM062X) =  -511.915030342     A.U. after    1 cycles

 The electronic state is 1-A.
 Alpha  occ. eigenvalues --  -19.71189 -19.68577 -19.66683 -14.78634 -10.71551
 Alpha  occ. eigenvalues --  -10.64893 -10.61266 -10.59787 -10.58602 -10.58330
 Alpha  occ. eigenvalues --   -1.26484  -1.20835  -1.16220  -1.07674  -0.92273
 Alpha  occ. eigenvalues --   -0.88879  -0.78962  -0.73498  -0.72269  -0.64258
 Alpha  occ. eigenvalues --   -0.63248  -0.60499  -0.57689  -0.56573  -0.55679
 Alpha  occ. eigenvalues --   -0.51343  -0.50558  -0.49174  -0.48110  -0.46813
 Alpha  occ. eigenvalues --   -0.45652  -0.41690  -0.38996  -0.35786  -0.33942
 Alpha  occ. eigenvalues --   -0.30683
 Alpha virt. eigenvalues --   -0.04108   0.00615   0.00797   0.01637   0.03214
 Alpha virt. eigenvalues --    0.03795   0.04846   0.05285   0.06043   0.06793
 Alpha virt. eigenvalues --    0.07801   0.08052   0.09023   0.09397   0.10635

 Mulliken charges:
               1
     1  N   -0.161894
     2  C   -0.179672
     3  C    0.064434
     4  C   -0.054661
     5  C    0.027126
     6  C   -0.011366
     7  C    0.526469
     8  O   -0.551468
     9  O   -0.448398
    10  O   -0.553310
    11  H    0.156508
    12  H    0.171818
    13  H    0.182266
    14  H    0.401892
    15  H    0.430258
 Sum of Mulliken charges =  -0.00000

 Dipole moment (field-independent basis, Debye):
    X=              1.1815    Y=             -0.4363    Z=              0.0000  Tot=              1.2595
 Quadrupole moment (field-independent basis, Debye-Ang):
   XX=            -43.3963   YY=            -62.2472   ZZ=            -58.5171
   XY=              2.1434   XZ=             -0.0002   YZ=             -0.0000

  Exact polarizability: 112.301  -3.789  94.551  -0.001   0.000  45.284
 Approx polarizability: 133.259  -7.053 129.413  -0.001   0.001  58.525

                      1                      2                      3
                      A                      A                      A
 Frequencies --     87.6431               139.5280               245.5538
 Red. masses --      9.2804                 5.8250                 6.5312
 Frc consts  --      0.0420                 0.0668                 0.2320
 IR Inten    --      0.9631                 3.0936                 2.6068

                      4                      5                      6
                      A                      A                      A
 Frequencies --    257.8875               362.9792               438.9863
 Red. masses --      4.8924                 7.2825                 3.8150
 Frc consts  --      0.1917                 0.5653                 0.4332
 IR Inten    --      1.6330                12.2534                 0.4919

                      7                      8                      9
                      A                      A                      A
 Frequencies --    439.8470               534.4253               555.8635
 Red. masses --      9.4513                 5.5928                 3.7751
 Frc consts  --      1.0773                 0.9411                 0.6873
 IR Inten    --      3.4773                 3.9589                 1.2395

                     10                     11                     12
                      A                      A                      A
 Frequencies --    580.5222               613.5648               659.4673
 Red. masses --      7.5150                 1.2488                 6.2384
 Frc consts  --      1.4922                 0.2770                 1.5985
 IR Inten    --      6.1324                79.2382                66.8649

                     13                     14                     15
                      A                      A                      A
 Frequencies --    723.9331               738.5383               775.3011
 Red. masses --      1.3479                 2.0016                 4.4903
 Frc consts  --      0.4162                 0.6432                 1.5902
 IR Inten    --     24.7682               168.3503                33.4353

                     16                     17                     18
                      A                      A                      A
 Frequencies --    821.5203               834.1111               884.0848
 Red. masses --      6.6744                 1.5384                 6.8939
 Frc consts  --      2.6540                 0.6306                 3.1747
 IR Inten    --     26.5798                10.9522                 9.0404

                     19                     20                     21
                      A                      A                      A
 Frequencies --    952.2623              1013.2064              1082.9282
 Red. masses --      1.3850                 1.3443                 2.2920
 Frc consts  --      0.7400                 0.8131                 1.5836
 IR Inten    --      0.3042                 0.7675                 3.9212

                     22                     23                     24
                      A                      A                      A
 Frequencies --   1126.7023              1158.0156              1212.3574
 Red. masses --      2.3817                 1.5078                 2.0636
 Frc consts  --      1.7814                 1.1913                 1.7871
 IR Inten    --     37.7070                 1.1969               411.7086

                     25                     26                     27
                      A                      A                      A
 Frequencies --   1277.4973              1311.4760              1366.6548
 Red. masses --      1.6390                 2.4449                 1.5631
 Frc consts  --      1.5760                 2.4776                 1.7201
 IR Inten    --      7.3179                59.4254                32.6658

                     28                     29                     30
                      A                      A                      A
 Frequencies --   1370.6878              1476.0454              1512.4882
 Red. masses --      3.8898                 3.1642                 3.9312
 Frc consts  --      4.3058                 4.0617                 5.2986
 IR Inten    --     70.2733               168.3104               234.2722

                     31                     32                     33
                      A                      A                      A
 Frequencies --   1528.0087              1657.6728              1692.6169
 Red. masses --      3.3514                 5.3557                 7.6870
 Frc consts  --      4.6102                 8.6709                12.9756
 IR Inten    --     15.9403                19.1427                 5.8685

                     34                     35                     36
                      A                      A                      A
 Frequencies --   1804.8847              3197.1783              3222.5517
 Red. masses --      8.8722                 1.0902                 1.0914
 Frc consts  --     17.0286                 6.5660                 6.6777
 IR Inten    --    407.0078                 8.1889                 6.8841

                     37                     38                     39
                      A                      A                      A
 Frequencies --   3236.7370              3557.8985              3823.3999
 Red. masses --      1.0983                 1.0673                 1.0646
 Frc consts  --      6.7791                 7.9601                 9.1692
 IR Inten    --      1.7132               333.5073               139.3830

 - Thermochemistry -
 -------------------
 Temperature   298.150 Kelvin.  Pressure   1.00000 Atm.
 Atom     1 has atomic number  7 and mass  14.00307

 Molecular mass:   139.02694 amu.
 Principal axes and moments of inertia in atomic units:
                           1         2         3
     Eigenvalues --   762.855401426.887002189.74240
           X            1.00000  -0.00239   0.00001
           Y            0.00239   1.00000  -0.00001
           Z           -0.00001   0.00001   1.00000
 This molecule is an asymmetric top.
 Rotational symmetry number  1.
 Warning -- assumption of classical behavior for rotation
           may cause significant error
 Rotational temperatures (Kelvin)      0.11354     0.06070     0.03955
 Rotational constants (GHZ):           2.36577     1.26481     0.82418
 Zero-point vibrational energy     288748.8 (Joules/Mol)
                                   69.01262 (Kcal/Mol)
 Warning -- explicit consideration of  11 degrees of freedom as
           vibrations may cause significant error
 Vibrational temperatures:    126.10   200.75   353.30   371.04   522.25
          (Kelvin)            631.60   632.84   768.92   799.76   835.24
                              882.78   948.83  1041.58  1062.59  1115.48
                             1181.98  1200.10  1272.00  1370.09  1457.78
                             1558.09  1621.07  1666.12  1744.31  1838.03
                             1886.92  1966.31  1972.11  2123.70  2176.13
                             2198.46  2385.02  2435.30  2596.82  4600.02
                             4636.53  4656.94  5119.02  5501.01

 Zero-point correction=                           0.109979 (Hartree/Particle)
 Thermal correction to Energy=                    0.117643
 Thermal correction to Enthalpy=                  0.118587
 Thermal correction to Gibbs Free Energy=         0.077292
 Sum of electronic and zero-point Energies=           -511.805052
 Sum of electronic and thermal Energies=              -511.797387
 Sum of electronic and thermal Enthalpies=            -511.796443
 Sum of electronic and thermal Free Energies=         -511.837738

                     E (Thermal)             CV                S
                      KCal/Mol        Cal/Mol-Kelvin    Cal/Mol-Kelvin
 Total                   73.822             29.567             86.913
 Electronic               0.000              0.000              0.000
 Translational            0.889              2.981             40.700
 Rotational               0.889              2.981             29.257
 Vibrational             72.045             23.605             16.956
 Vibration     1          0.601              1.958              3.712
 Vibration     2          0.615              1.914              2.810
 Vibration     3          0.660              1.770              1.762
 Vibration     4          0.667              1.749              1.676
 Vibration     5          0.737              1.548              1.109
 Vibration     6          0.799              1.385              0.830
 Vibration     7          0.800              1.383              0.827
 Vibration     8          0.889              1.174              0.577
 Vibration     9          0.911              1.127              0.532
 Vibration    10          0.937              1.073              0.484
 Vibration    11          0.973              1.003              0.427

 Optimization completed.
    -- Stationary point found.
 Normal termination of Gaussian 09 at Sun Apr 28 15:36:50 2024.
