 Gaussian 09, Revision E.01,
 Gaussian 09:  ES64L-G09RevE.01 30-Nov-2015

 ----------------------------
 # opt freq m062x/6-31+g(d,p)
 ----------------------------

 ----------
 [No Title]
 ----------
 Symbolic Z-matrix:
 Charge =  1 Multiplicity = 1

 SCF Done:  E(RM062X) =  -512.269827912     A.U. after   15 cycles
 SCF Done:  E(RM062X) =  -512.270174300     A.U. after   11 cycles
 SCF Done:  E(RM062X) =  -512.270200393     A.U. after   11 cycles
 SCF Done:  E(RM062X) =  -512.270215740     A.U. after   10 cycles
 SCF Done:  E(RM062X) =  -512.270215761     A.U. after    9 cycles
 SCF Done:  E(RM062X) =  -512.270215896     A.U. after    9 cycles
 Optimization completed.
    -- Stationary point found.
 Normal termination of Gaussian 09 at Sun Apr 28 15:52:18 2024.

 ----------------------------------------------------------------------
 #N Geom=AllCheck Guess=TCheck SCRF=Check GenChk RM062X/6-31+G(d,p) Fre
 q
 ----------------------------------------------------------------------

 Structure from the checkpoint file:  "m062x3HPA.chk"
 ----------
 [No Title]
 ----------
 Charge =  1 Multiplicity = 1

                         Standard orientation:
 ---------------------------------------------------------------------
 Center     Atomic      Atomic             Coordinates (Angstroms)
 Number     Number       Type             X           Y           Z
 ---------------------------------------------------------------------
      1          7           0        0.506731   -1.349528    0.000154
      2          6           0        1.833257   -1.419977   -0.000043
      3          6           0        2.563408   -0.227430   -0.000226
      4          6           0        1.895603    0.978638   -0.000184
      5          6           0        0.481004    1.021179    0.000037
      6          6           0       -0.203712   -0.194953    0.000210
      7          6           0       -1.680283   -0.422342    0.000477
      8          8           0       -2.146345   -1.528889   -0.000057
      9          8           0       -2.367205    0.721735   -0.000229
     10          8           0       -0.085486    2.216063    0.000061
     11          1           0       -0.064552   -2.201013    0.000309
     12          1           0        2.280224   -2.406655   -0.000048
     13          1           0        3.646137   -0.267049   -0.000393
     14          1           0        2.428629    1.924710   -0.000322
     15          1           0       -3.324418    0.540414   -0.000663
     16          1           0       -1.056517    2.174330    0.000226
 ---------------------------------------------------------------------

 SCF Done:  E(RM062X) =  -512.270215896     A.U. after    1 cycles

 The electronic state is 1-A.
 Alpha  occ. eigenvalues --  -19.88791 -19.86480 -19.83192 -15.06391 -10.89024
 Alpha  occ. eigenvalues --  -10.84222 -10.82005 -10.81820 -10.77422 -10.77132
 Alpha  occ. eigenvalues --   -1.43508  -1.38957  -1.34708  -1.32236  -1.12407
 Alpha  occ. eigenvalues --   -1.09983  -0.98435  -0.95140  -0.92228  -0.86348
 Alpha  occ. eigenvalues --   -0.83236  -0.79504  -0.76930  -0.76126  -0.75125
 Alpha  occ. eigenvalues --   -0.74347  -0.70459  -0.68607  -0.67258  -0.66602
 Alpha  occ. eigenvalues --   -0.65934  -0.61512  -0.58785  -0.55704  -0.55197
 Alpha  occ. eigenvalues --   -0.49846
 Alpha virt. eigenvalues --   -0.23899  -0.18634  -0.13352  -0.11518  -0.10102
 Alpha virt. eigenvalues --   -0.09890  -0.09199  -0.08543  -0.07848  -0.07119
 Alpha virt. eigenvalues --   -0.05212  -0.04684  -0.04029  -0.03577  -0.02332

 Mulliken charges:
               1
     1  N   -0.233682
     2  C   -0.140321
     3  C    0.086672
     4  C   -0.028892
     5  C    0.380337
     6  C    0.063730
     7  C    0.349159
     8  O   -0.418470
     9  O   -0.594367
    10  O   -0.503987
    11  H    0.404756
    12  H    0.243227
    13  H    0.239846
    14  H    0.239756
    15  H    0.463024
    16  H    0.449211
 Sum of Mulliken charges =   1.00000

 Dipole moment (field-independent basis, Debye):
    X=              2.5605    Y=             -1.2936    Z=              0.0004  Tot=              2.8688
 Quadrupole moment (field-independent basis, Debye-Ang):
   XX=            -25.0318   YY=            -44.3663   ZZ=            -56.4763
   XY=             -9.7660   XZ=             -0.0007   YZ=             -0.0014

  Exact polarizability: 105.058  -1.504  91.637  -0.003  -0.001  40.276
 Approx polarizability: 126.228  -1.420 128.542  -0.004   0.000  52.506

                      1                      2                      3
                      A                      A                      A
 Frequencies --     95.4191               136.4001               236.6965
 Red. masses --     10.3405                 4.4709                 6.4672
 Frc consts  --      0.0555                 0.0490                 0.2135
 IR Inten    --      4.7188                 0.0399                 6.4928

                      4                      5                      6
                      A                      A                      A
 Frequencies --    247.0525               372.7576               411.2157
 Red. masses --      4.7128                 8.0266                 6.8531
 Frc consts  --      0.1695                 0.6571                 0.6828
 IR Inten    --      2.3137                 5.7257                14.7248

                      7                      8                      9
                      A                      A                      A
 Frequencies --    413.4475               545.5965               556.2980
 Red. masses --      3.2742                 2.7623                 6.0216
 Frc consts  --      0.3298                 0.4845                 1.0979
 IR Inten    --     11.4983                15.1409                 3.1055

                     10                     11                     12
                      A                      A                      A
 Frequencies --    574.8627               577.0507               589.8191
 Red. masses --      6.6608                 1.1302                 1.3587
 Frc consts  --      1.2969                 0.2217                 0.2785
 IR Inten    --     11.5578               167.3805                18.7990

                     13                     14                     15
                      A                      A                      A
 Frequencies --    638.6510               678.2132               763.7241
 Red. masses --      5.1388                 3.0328                 4.3614
 Frc consts  --      1.2349                 0.8219                 1.4988
 IR Inten    --     35.8121               103.5686                19.1425

                     16                     17                     18
                      A                      A                      A
 Frequencies --    782.1979               808.1652               886.9191
 Red. masses --      9.1959                 1.3792                 5.8530
 Frc consts  --      3.3150                 0.5307                 2.7127
 IR Inten    --     33.7543                70.6116                21.4516

                     19                     20                     21
                      A                      A                      A
 Frequencies --    902.7233               987.0803              1027.4761
 Red. masses --      1.2719                 1.3157                 1.3206
 Frc consts  --      0.6107                 0.7553                 0.8214
 IR Inten    --      9.2681                14.5728                 0.0255

                     22                     23                     24
                      A                      A                      A
 Frequencies --   1083.7998              1129.1648              1174.2237
 Red. masses --      2.3326                 2.0204                 1.3956
 Frc consts  --      1.6143                 1.5178                 1.1337
 IR Inten    --     13.1097                16.6779                32.0646

                     25                     26                     27
                      A                      A                      A
 Frequencies --   1197.0794              1259.2735              1276.1133
 Red. masses --      2.2356                 1.3365                 1.4455
 Frc consts  --      1.8875                 1.2487                 1.3869
 IR Inten    --    127.3947                14.3865               270.8487

                     28                     29                     30
                      A                      A                      A
 Frequencies --   1342.1715              1375.3104              1413.5397
 Red. masses --      4.0132                 1.4196                 2.6097
 Frc consts  --      4.2595                 1.5821                 3.0723
 IR Inten    --    147.3493                38.3888               100.0221

                     31                     32                     33
                      A                      A                      A
 Frequencies --   1464.5376              1556.3179              1591.9783
 Red. masses --      4.6026                 3.4213                 2.6634
 Frc consts  --      5.8164                 4.8824                 3.9771
 IR Inten    --     23.6515                84.5912               263.2200

                     34                     35                     36
                      A                      A                      A
 Frequencies --   1674.1667              1720.7011              1903.0167
 Red. masses --      6.7382                 5.6089                11.1068
 Frc consts  --     11.1273                 9.7844                23.6987
 IR Inten    --     35.2491                23.0955               374.9474

                     37                     38                     39
                      A                      A                      A
 Frequencies --   3233.3652              3251.2007              3262.3692
 Red. masses --      1.0937                 1.0954                 1.1003
 Frc consts  --      6.7367                 6.8217                 6.8995
 IR Inten    --      9.2468                11.1012                25.1890

                     40                     41                     42
                      A                      A                      A
 Frequencies --   3477.3024              3764.1463              3771.7745
 Red. masses --      1.0804                 1.0671                 1.0644
 Frc consts  --      7.6973                 8.9080                 8.9217
 IR Inten    --    217.6488               564.5171                 3.7852

 - Thermochemistry -
 -------------------
 Temperature   298.150 Kelvin.  Pressure   1.00000 Atm.
 Atom     1 has atomic number  7 and mass  14.00307

 Molecular mass:   140.03477 amu.
 Principal axes and moments of inertia in atomic units:
                           1         2         3
     Eigenvalues --   787.772781440.590452228.36319
           X            0.99951  -0.03114   0.00003
           Y            0.03114   0.99951   0.00003
           Z           -0.00003  -0.00003   1.00000
 This molecule is an asymmetric top.
 Rotational symmetry number  1.
 Warning -- assumption of classical behavior for rotation
           may cause significant error
 Rotational temperatures (Kelvin)      0.10995     0.06012     0.03887
 Rotational constants (GHZ):           2.29094     1.25278     0.80990
 Zero-point vibrational energy     323908.8 (Joules/Mol)
                                   77.41606 (Kcal/Mol)
 Warning -- explicit consideration of  12 degrees of freedom as
           vibrations may cause significant error
 Vibrational temperatures:    137.29   196.25   340.55   355.45   536.31
          (Kelvin)            591.65   594.86   784.99   800.39   827.10
                              830.25   848.62   918.88   975.80  1098.83
                             1125.41  1162.77  1276.08  1298.82  1420.19
                             1478.31  1559.34  1624.61  1689.44  1722.33
                             1811.81  1836.04  1931.08  1978.76  2033.77
                             2107.14  2239.19  2290.50  2408.75  2475.70
                             2738.01  4652.09  4677.75  4693.82  5003.06
                             5415.76  5426.74

 Zero-point correction=                           0.123370 (Hartree/Particle)
 Thermal correction to Energy=                    0.131278
 Thermal correction to Enthalpy=                  0.132223
 Thermal correction to Gibbs Free Energy=         0.090561
 Sum of electronic and zero-point Energies=           -512.146846
 Sum of electronic and thermal Energies=              -512.138937
 Sum of electronic and thermal Enthalpies=            -512.137993
 Sum of electronic and thermal Free Energies=         -512.179655

                     E (Thermal)             CV                S
                      KCal/Mol        Cal/Mol-Kelvin    Cal/Mol-Kelvin
 Total                   82.378             30.846             87.685
 Electronic               0.000              0.000              0.000
 Translational            0.889              2.981             40.722
 Rotational               0.889              2.981             29.315
 Vibrational             80.601             24.884             17.647
 Vibration     1          0.603              1.952              3.546
 Vibration     2          0.614              1.917              2.854
 Vibration     3          0.656              1.785              1.828
 Vibration     4          0.661              1.768              1.752
 Vibration     5          0.744              1.528              1.068
 Vibration     6          0.775              1.446              0.922
 Vibration     7          0.777              1.441              0.915
 Vibration     8          0.901              1.149              0.553
 Vibration     9          0.912              1.126              0.531
 Vibration    10          0.931              1.086              0.495
 Vibration    11          0.934              1.081              0.491
 Vibration    12          0.947              1.053              0.468

 Optimization completed.
    -- Stationary point found.
 Normal termination of Gaussian 09 at Sun Apr 28 15:53:47 2024.
