 Gaussian 09, Revision E.01,
 Gaussian 09:  ES64L-G09RevE.01 30-Nov-2015

 -----------------------------
 # opt freq pbepbe/6-31+g(d,p)
 -----------------------------

 ----------
 [No Title]
 ----------
 Symbolic Z-matrix:
 Charge =  0 Multiplicity = 1

 SCF Done:  E(RPBE-PBE) =  -511.552581961     A.U. after   15 cycles
 SCF Done:  E(RPBE-PBE) =  -511.555150380     A.U. after   12 cycles
 SCF Done:  E(RPBE-PBE) =  -511.555238161     A.U. after   12 cycles
 SCF Done:  E(RPBE-PBE) =  -511.555291977     A.U. after   11 cycles
 SCF Done:  E(RPBE-PBE) =  -511.555303970     A.U. after   11 cycles
 SCF Done:  E(RPBE-PBE) =  -511.555303839     A.U. after   10 cycles
 SCF Done:  E(RPBE-PBE) =  -511.555304548     A.U. after    9 cycles
 Optimization completed.
    -- Stationary point found.
 Normal termination of Gaussian 09 at Sun May 19 23:22:31 2024.

 ----------------------------------------------------------------------
 #N Geom=AllCheck Guess=TCheck SCRF=Check GenChk RPBEPBE/6-31+G(d,p) Fr
 eq
 ----------------------------------------------------------------------

 Structure from the checkpoint file:  "pbe3HPA.chk"
 ----------
 [No Title]
 ----------
 Charge =  0 Multiplicity = 1

                         Standard orientation:
 ---------------------------------------------------------------------
 Center     Atomic      Atomic             Coordinates (Angstroms)
 Number     Number       Type             X           Y           Z
 ---------------------------------------------------------------------
      1          7           0       -0.449658   -1.465403    0.000109
      2          6           0       -1.784424   -1.479837    0.000069
      3          6           0       -2.568843   -0.303317   -0.000022
      4          6           0       -1.938652    0.936625   -0.000051
      5          6           0       -0.526666    0.980429    0.000014
      6          6           0        0.173880   -0.264472    0.000083
      7          6           0        1.650490   -0.231133    0.000085
      8          8           0        2.301246    0.834984   -0.000276
      9          8           0        2.263344   -1.429720    0.000006
     10          8           0        0.088862    2.175940    0.000044
     11          1           0       -2.259437   -2.467276    0.000098
     12          1           0       -3.660973   -0.372649   -0.000061
     13          1           0       -2.496177    1.877036   -0.000104
     14          1           0        3.225819   -1.235599   -0.000170
     15          1           0        1.076034    1.976906    0.000208
 ---------------------------------------------------------------------

 SCF Done:  E(RPBE-PBE) =  -511.555304548     A.U. after    1 cycles

 The electronic state is 1-A.
 Alpha  occ. eigenvalues --  -18.84987 -18.82276 -18.80288 -14.02858 -10.05468
 Alpha  occ. eigenvalues --   -9.99785  -9.96536  -9.95016  -9.94021  -9.93799
 Alpha  occ. eigenvalues --   -1.04179  -0.99464  -0.94975  -0.87936  -0.74626
 Alpha  occ. eigenvalues --   -0.71683  -0.63425  -0.58599  -0.57575  -0.50756
 Alpha  occ. eigenvalues --   -0.49759  -0.46341  -0.44797  -0.43005  -0.42821
 Alpha  occ. eigenvalues --   -0.38479  -0.38236  -0.37241  -0.35797  -0.35250
 Alpha  occ. eigenvalues --   -0.33888  -0.30135  -0.27341  -0.26963  -0.22950
 Alpha  occ. eigenvalues --   -0.22751
 Alpha virt. eigenvalues --   -0.10879  -0.06159  -0.02112  -0.01458  -0.00793
 Alpha virt. eigenvalues --    0.01054   0.01836   0.03600   0.03833   0.04239
 Alpha virt. eigenvalues --    0.06493   0.06548   0.07408   0.07878   0.08704

 Mulliken charges:
               1
     1  N   -0.127128
     2  C   -0.255400
     3  C    0.148207
     4  C   -0.084252
     5  C    0.085311
     6  C   -0.022206
     7  C    0.398475
     8  O   -0.514867
     9  O   -0.377239
    10  O   -0.491683
    11  H    0.145669
    12  H    0.154747
    13  H    0.165548
    14  H    0.376456
    15  H    0.398363
 Sum of Mulliken charges =  -0.00000

 Dipole moment (field-independent basis, Debye):
    X=             -1.1360    Y=             -0.3573    Z=              0.0004  Tot=              1.1909
 Quadrupole moment (field-independent basis, Debye-Ang):
   XX=            -43.8408   YY=            -62.6815   ZZ=            -58.5704
   XY=             -2.4236   XZ=              0.0010   YZ=              0.0016

  Exact polarizability: 127.685   2.676 102.489  -0.001  -0.002  47.941
 Approx polarizability: 249.311   9.734 228.169  -0.002  -0.008  78.181

                      1                      2                      3
                      A                      A                      A
 Frequencies --     94.9190               134.9060               238.8153
 Red. masses --      7.9154                 6.4878                 6.3472
 Frc consts  --      0.0420                 0.0696                 0.2133
 IR Inten    --      1.5937                 2.4493                 2.9569

                      4                      5                      6
                      A                      A                      A
 Frequencies --    245.1977               356.0491               417.9355
 Red. masses --      5.0025                 7.5088                 3.8796
 Frc consts  --      0.1772                 0.5608                 0.3993
 IR Inten    --      1.7186                12.1144                 0.3969

                      7                      8                      9
                      A                      A                      A
 Frequencies --    434.0442               513.2588               529.5108
 Red. masses --     10.0645                 5.5329                 3.7677
 Frc consts  --      1.1171                 0.8588                 0.6224
 IR Inten    --      2.0505                 3.5638                 0.1799

                     10                     11                     12
                      A                      A                      A
 Frequencies --    559.0712               597.3265               628.2008
 Red. masses --      7.5405                 1.2542                 6.1499
 Frc consts  --      1.3886                 0.2637                 1.4299
 IR Inten    --      6.0206                68.0772                63.8361

                     13                     14                     15
                      A                      A                      A
 Frequencies --    704.0711               735.8789               782.0715
 Red. masses --      3.2770                 4.7393                 9.5264
 Frc consts  --      0.9571                 1.5121                 3.4330
 IR Inten    --     61.3689                20.2519                 9.0257

                     16                     17                     18
                      A                      A                      A
 Frequencies --    792.0722               849.3752               851.8228
 Red. masses --      1.4485                 1.0685                 7.1479
 Frc consts  --      0.5354                 0.4542                 3.0558
 IR Inten    --     52.0283                63.5222                 6.3803

                     19                     20                     21
                      A                      A                      A
 Frequencies --    901.3781               954.0093              1041.5341
 Red. masses --      1.3693                 1.3288                 2.2739
 Frc consts  --      0.6555                 0.7126                 1.4534
 IR Inten    --      0.7966                 0.9291                 1.1658

                     22                     23                     24
                      A                      A                      A
 Frequencies --   1077.0937              1117.9989              1161.2659
 Red. masses --      3.7118                 1.4296                 1.7372
 Frc consts  --      2.5371                 1.0528                 1.3802
 IR Inten    --     90.2015                16.9446               294.8037

                     25                     26                     27
                      A                      A                      A
 Frequencies --   1233.0392              1279.5547              1322.0669
 Red. masses --      1.8315                 2.4215                 2.0011
 Frc consts  --      1.6406                 2.3359                 2.0607
 IR Inten    --      0.1259                96.8393                22.3795

                     28                     29                     30
                      A                      A                      A
 Frequencies --   1359.6105              1418.3607              1444.7196
 Red. masses --      4.1374                 3.6494                 2.8779
 Frc consts  --      4.5062                 4.3255                 3.5390
 IR Inten    --     33.1197               152.0243               177.3328

                     31                     32                     33
                      A                      A                      A
 Frequencies --   1453.6008              1572.7882              1592.6417
 Red. masses --      2.6507                 3.8910                 7.2818
 Frc consts  --      3.3000                 5.6708                10.8824
 IR Inten    --     45.3572                38.5215                 4.3475

                     34                     35                     36
                      A                      A                      A
 Frequencies --   1666.9150              3107.6895              3121.7738
 Red. masses --      6.3508                 1.0883                 1.0702
 Frc consts  --     10.3970                 6.1926                 6.1450
 IR Inten    --    294.8416                 8.7439               400.0075

                     37                     38                     39
                      A                      A                      A
 Frequencies --   3132.1334              3151.3312              3636.7346
 Red. masses --      1.0907                 1.0956                 1.0639
 Frc consts  --      6.3040                 6.4106                 8.2907
 IR Inten    --      5.2966                 4.6649                88.9527

 - Thermochemistry -
 -------------------
 Temperature   298.150 Kelvin.  Pressure   1.00000 Atm.
 Atom     1 has atomic number  7 and mass  14.00307

 Molecular mass:   139.02694 amu.
 Principal axes and moments of inertia in atomic units:
                           1         2         3
     Eigenvalues --   770.907711446.094202217.00190
           X            1.00000   0.00206   0.00002
           Y           -0.00206   1.00000   0.00003
           Z           -0.00002  -0.00003   1.00000
 This molecule is an asymmetric top.
 Rotational symmetry number  1.
 Warning -- assumption of classical behavior for rotation
           may cause significant error
 Rotational temperatures (Kelvin)      0.11235     0.05990     0.03907
 Rotational constants (GHZ):           2.34106     1.24801     0.81405
 Zero-point vibrational energy     276401.8 (Joules/Mol)
                                   66.06161 (Kcal/Mol)
 Warning -- explicit consideration of  11 degrees of freedom as
           vibrations may cause significant error
 Vibrational temperatures:    136.57   194.10   343.60   352.78   512.27
          (Kelvin)            601.32   624.49   738.46   761.85   804.38
                              859.42   903.84  1013.00  1058.76  1125.22
                             1139.61  1222.06  1225.58  1296.88  1372.60
                             1498.53  1549.70  1608.55  1670.80  1774.07
                             1840.99  1902.16  1956.17  2040.70  2078.63
                             2091.40  2262.89  2291.45  2398.32  4471.27
                             4491.53  4506.44  4534.06  5232.44

 Zero-point correction=                           0.105276 (Hartree/Particle)
 Thermal correction to Energy=                    0.113129
 Thermal correction to Enthalpy=                  0.114073
 Thermal correction to Gibbs Free Energy=         0.072494
 Sum of electronic and zero-point Energies=           -511.450029
 Sum of electronic and thermal Energies=              -511.442175
 Sum of electronic and thermal Enthalpies=            -511.441231
 Sum of electronic and thermal Free Energies=         -511.482811

                     E (Thermal)             CV                S
                      KCal/Mol        Cal/Mol-Kelvin    Cal/Mol-Kelvin
 Total                   70.990             30.473             87.511
 Electronic               0.000              0.000              0.000
 Translational            0.889              2.981             40.700
 Rotational               0.889              2.981             29.293
 Vibrational             69.212             24.511             17.518
 Vibration     1          0.603              1.953              3.556
 Vibration     2          0.613              1.918              2.875
 Vibration     3          0.657              1.781              1.812
 Vibration     4          0.660              1.771              1.765
 Vibration     5          0.732              1.563              1.139
 Vibration     6          0.781              1.431              0.899
 Vibration     7          0.795              1.396              0.846
 Vibration     8          0.868              1.221              0.626
 Vibration     9          0.884              1.185              0.588
 Vibration    10          0.915              1.120              0.526
 Vibration    11          0.955              1.037              0.454

 Optimization completed.
    -- Stationary point found.
 Normal termination of Gaussian 09 at Sun May 19 23:23:31 2024.
