 Gaussian 09, Revision E.01,
 Gaussian 09:  ES64L-G09RevE.01 30-Nov-2015

 -----------------------------
 # opt freq pbepbe/6-31+g(d,p)
 -----------------------------

 ----------
 [No Title]
 ----------
 Symbolic Z-matrix:
 Charge =  1 Multiplicity = 1

 SCF Done:  E(RPBE-PBE) =  -511.910901061     A.U. after   15 cycles
 SCF Done:  E(RPBE-PBE) =  -511.913301786     A.U. after   13 cycles
 SCF Done:  E(RPBE-PBE) =  -511.913356748     A.U. after   11 cycles
 SCF Done:  E(RPBE-PBE) =  -511.913370489     A.U. after   10 cycles
 SCF Done:  E(RPBE-PBE) =  -511.913370687     A.U. after   10 cycles
 SCF Done:  E(RPBE-PBE) =  -511.913371631     A.U. after    9 cycles
 Optimization completed.
    -- Stationary point found.
 Normal termination of Gaussian 09 at Sun May 19 23:40:13 2024.

 ----------------------------------------------------------------------
 #N Geom=AllCheck Guess=TCheck SCRF=Check GenChk RPBEPBE/6-31+G(d,p) Fr
 eq
 ----------------------------------------------------------------------

 Structure from the checkpoint file:  "pbe3HPA.chk"
 ----------
 [No Title]
 ----------
 Charge =  1 Multiplicity = 1

                         Standard orientation:
 ---------------------------------------------------------------------
 Center     Atomic      Atomic             Coordinates (Angstroms)
 Number     Number       Type             X           Y           Z
 ---------------------------------------------------------------------
      1          7           0       -0.510125   -1.360739    0.000059
      2          6           0       -1.850899   -1.428261   -0.000089
      3          6           0       -2.580792   -0.227458   -0.000130
      4          6           0       -1.909217    0.989963   -0.000009
      5          6           0       -0.487154    1.030332    0.000152
      6          6           0        0.209793   -0.200683    0.000189
      7          6           0        1.683709   -0.428321    0.000353
      8          8           0        2.170836   -1.546098   -0.000264
      9          8           0        2.373212    0.740351   -0.000327
     10          8           0        0.095211    2.228295    0.000283
     11          1           0        0.071371   -2.215505    0.000103
     12          1           0       -2.301758   -2.421839   -0.000166
     13          1           0       -3.672184   -0.265684   -0.000254
     14          1           0       -2.450941    1.940200   -0.000035
     15          1           0        3.339249    0.550265   -0.000828
     16          1           0        1.078430    2.143924    0.000434
 ---------------------------------------------------------------------

 SCF Done:  E(RPBE-PBE) =  -511.913371631     A.U. after    2 cycles

 The electronic state is 1-A.
 Alpha  occ. eigenvalues --  -19.02500 -19.00663 -18.96360 -14.30153 -10.22767
 Alpha  occ. eigenvalues --  -10.19017 -10.17048 -10.16359 -10.12535 -10.12435
 Alpha  occ. eigenvalues --   -1.20975  -1.17831  -1.13557  -1.11563  -0.94493
 Alpha  occ. eigenvalues --   -0.92509  -0.82790  -0.79848  -0.77455  -0.72426
 Alpha  occ. eigenvalues --   -0.69510  -0.66097  -0.64347  -0.61815  -0.61664
 Alpha  occ. eigenvalues --   -0.61410  -0.57195  -0.55850  -0.55012  -0.54470
 Alpha  occ. eigenvalues --   -0.54243  -0.49906  -0.47309  -0.46235  -0.43252
 Alpha  occ. eigenvalues --   -0.41663
 Alpha virt. eigenvalues --   -0.30214  -0.25487  -0.18946  -0.16886  -0.15569
 Alpha virt. eigenvalues --   -0.12888  -0.12481  -0.11317  -0.10496  -0.09899
 Alpha virt. eigenvalues --   -0.09190  -0.07721  -0.06432  -0.06298  -0.05402

 Mulliken charges:
               1
     1  N   -0.125233
     2  C   -0.230890
     3  C    0.179114
     4  C   -0.049017
     5  C    0.380986
     6  C    0.050375
     7  C    0.264625
     8  O   -0.391675
     9  O   -0.528249
    10  O   -0.441788
    11  H    0.368917
    12  H    0.222105
    13  H    0.218616
    14  H    0.218714
    15  H    0.440749
    16  H    0.422649
 Sum of Mulliken charges =   1.00000

 Dipole moment (field-independent basis, Debye):
    X=             -2.4323    Y=             -1.0256    Z=              0.0002  Tot=              2.6397
 Quadrupole moment (field-independent basis, Debye-Ang):
   XX=            -25.1664   YY=            -44.2002   ZZ=            -56.3870
   XY=              9.5035   XZ=             -0.0004   YZ=             -0.0004

  Exact polarizability: 117.185   1.706  98.206  -0.000   0.003  41.985
 Approx polarizability: 235.441   0.059 229.160   0.001   0.014  68.295

                      1                      2                      3
                      A                      A                      A
 Frequencies --     95.1515               131.2208               209.8197
 Red. masses --     10.4881                 4.5319                 6.3064
 Frc consts  --      0.0559                 0.0460                 0.1636
 IR Inten    --      3.9305                 0.0017                 7.2857

                      4                      5                      6
                      A                      A                      A
 Frequencies --    238.1031               350.5564               401.1156
 Red. masses --      4.7850                 7.7051                 6.9578
 Frc consts  --      0.1598                 0.5579                 0.6596
 IR Inten    --      2.5645                 6.8663                13.1225

                      7                      8                      9
                      A                      A                      A
 Frequencies --    401.6047               527.2218               531.5022
 Red. masses --      3.3707                 3.0277                 5.9657
 Frc consts  --      0.3203                 0.4958                 0.9929
 IR Inten    --      9.6118                 4.0135                 2.2246

                     10                     11                     12
                      A                      A                      A
 Frequencies --    554.1424               574.5777               609.7471
 Red. masses --      6.5561                 1.3885                 5.0928
 Frc consts  --      1.1862                 0.2701                 1.1156
 IR Inten    --     14.1773                98.3176                28.3775

                     13                     14                     15
                      A                      A                      A
 Frequencies --    632.1189               654.5025               725.1846
 Red. masses --      1.0932                 2.9724                 4.6942
 Frc consts  --      0.2574                 0.7502                 1.4545
 IR Inten    --     80.3569                94.2929                 9.9664

                     16                     17                     18
                      A                      A                      A
 Frequencies --    749.2501               777.9601               859.4553
 Red. masses --      9.2102                 1.3663                 5.9745
 Frc consts  --      3.0463                 0.4872                 2.6001
 IR Inten    --      8.5780                68.7502                16.0078

                     19                     20                     21
                      A                      A                      A
 Frequencies --    863.5062               928.7887               976.6446
 Red. masses --      1.2612                 1.2966                 1.3151
 Frc consts  --      0.5541                 0.6590                 0.7390
 IR Inten    --     10.4465                13.5258                 0.0001

                     22                     23                     24
                      A                      A                      A
 Frequencies --   1042.9870              1089.0953              1113.5847
 Red. masses --      2.3595                 2.1202                 3.2513
 Frc consts  --      1.5123                 1.4817                 2.3755
 IR Inten    --     25.9640                14.4946               125.7940

                     25                     26                     27
                      A                      A                      A
 Frequencies --   1148.5073              1208.6527              1233.0867
 Red. masses --      1.2275                 1.3057                 1.4942
 Frc consts  --      0.9540                 1.1238                 1.3386
 IR Inten    --     49.2296                16.2245               214.6774

                     28                     29                     30
                      A                      A                      A
 Frequencies --   1302.0631              1328.4837              1354.7931
 Red. masses --      3.5484                 1.6571                 2.0096
 Frc consts  --      3.5445                 1.7231                 2.1732
 IR Inten    --    124.9915                59.4225                44.4995

                     31                     32                     33
                      A                      A                      A
 Frequencies --   1421.9466              1488.2678              1520.6633
 Red. masses --      6.0384                 2.8763                 2.6646
 Frc consts  --      7.1935                 3.7536                 3.6304
 IR Inten    --     16.6370                23.2386               243.6673

                     34                     35                     36
                      A                      A                      A
 Frequencies --   1585.4072              1625.9511              1769.6093
 Red. masses --      5.9292                 5.6219                10.2393
 Frc consts  --      8.7807                 8.7568                18.8919
 IR Inten    --     17.7953                28.7102               290.9534

                     37                     38                     39
                      A                      A                      A
 Frequencies --   3155.7842              3173.8593              3188.2017
 Red. masses --      1.0921                 1.0941                 1.0981
 Frc consts  --      6.4079                 6.4933                 6.5763
 IR Inten    --      6.1427                 8.3033                19.2548

                     40                     41                     42
                      A                      A                      A
 Frequencies --   3358.9910              3524.5111              3613.7296
 Red. masses --      1.0794                 1.0664                 1.0649
 Frc consts  --      7.1755                 7.8046                 8.1937
 IR Inten    --    165.9284               274.5787               188.5599

 - Thermochemistry -
 -------------------
 Temperature   298.150 Kelvin.  Pressure   1.00000 Atm.
 Atom     1 has atomic number  7 and mass  14.00307

 Molecular mass:   140.03477 amu.
 Principal axes and moments of inertia in atomic units:
                           1         2         3
     Eigenvalues --   800.330211460.182192260.51235
           X            0.99952   0.03107   0.00002
           Y           -0.03107   0.99952  -0.00006
           Z           -0.00002   0.00006   1.00000
 This molecule is an asymmetric top.
 Rotational symmetry number  1.
 Warning -- assumption of classical behavior for rotation
           may cause significant error
 Rotational temperatures (Kelvin)      0.10822     0.05932     0.03832
 Rotational constants (GHZ):           2.25500     1.23597     0.79838
 Zero-point vibrational energy     311270.4 (Joules/Mol)
                                   74.39541 (Kcal/Mol)
 Warning -- explicit consideration of  12 degrees of freedom as
           vibrations may cause significant error
 Vibrational temperatures:    136.90   188.80   301.88   342.58   504.37
          (Kelvin)            577.12   577.82   758.55   764.71   797.29
                              826.69   877.29   909.48   941.68  1043.38
                             1078.00  1119.31  1236.56  1242.39  1336.32
                             1405.17  1500.62  1566.96  1602.20  1652.44
                             1738.98  1774.13  1873.38  1911.39  1949.24
                             2045.86  2141.28  2187.89  2281.04  2339.38
                             2546.07  4540.46  4566.47  4587.11  4832.83
                             5070.98  5199.34

 Zero-point correction=                           0.118557 (Hartree/Particle)
 Thermal correction to Energy=                    0.126716
 Thermal correction to Enthalpy=                  0.127660
 Thermal correction to Gibbs Free Energy=         0.085528
 Sum of electronic and zero-point Energies=           -511.794815
 Sum of electronic and thermal Energies=              -511.786655
 Sum of electronic and thermal Enthalpies=            -511.785711
 Sum of electronic and thermal Free Energies=         -511.827844

                     E (Thermal)             CV                S
                      KCal/Mol        Cal/Mol-Kelvin    Cal/Mol-Kelvin
 Total                   79.516             31.915             88.676
 Electronic               0.000              0.000              0.000
 Translational            0.889              2.981             40.722
 Rotational               0.889              2.981             29.359
 Vibrational             77.738             25.953             18.595
 Vibration     1          0.603              1.953              3.551
 Vibration     2          0.612              1.922              2.928
 Vibration     3          0.642              1.826              2.045
 Vibration     4          0.656              1.782              1.817
 Vibration     5          0.727              1.574              1.164
 Vibration     6          0.767              1.468              0.959
 Vibration     7          0.767              1.467              0.957
 Vibration     8          0.882              1.190              0.593
 Vibration     9          0.886              1.180              0.584
 Vibration    10          0.910              1.131              0.536
 Vibration    11          0.931              1.086              0.496
 Vibration    12          0.969              1.011              0.433

 Optimization completed.
    -- Stationary point found.
 Normal termination of Gaussian 09 at Sun May 19 23:41:16 2024.
