 Gaussian 09, Revision E.01,
 Gaussian 09:  ES64L-G09RevE.01 30-Nov-2015

 -----------------------------
 # opt freq wb97xd/6-31+g(d,p)
 -----------------------------

 ----------
 [No Title]
 ----------
 Symbolic Z-matrix:
 Charge =  1 Multiplicity = 1

 SCF Done:  E(RwB97XD) =  -512.313478572     A.U. after   16 cycles
 SCF Done:  E(RwB97XD) =  -512.313531755     A.U. after   12 cycles
 SCF Done:  E(RwB97XD) =  -512.313537179     A.U. after   10 cycles
 SCF Done:  E(RwB97XD) =  -512.313539714     A.U. after   10 cycles
 SCF Done:  E(RwB97XD) =  -512.313539636     A.U. after   10 cycles
 SCF Done:  E(RwB97XD) =  -512.313539925     A.U. after    9 cycles
 Optimization completed.
    -- Stationary point found.
 Normal termination of Gaussian 09 at Sun May 19 23:43:12 2024.

 ----------------------------------------------------------------------
 #N Geom=AllCheck Guess=TCheck SCRF=Check GenChk RwB97XD/6-31+G(d,p) Fr
 eq
 ----------------------------------------------------------------------

 Structure from the checkpoint file:  "WB97XD3HPA.chk"
 ----------
 [No Title]
 ----------
 Charge =  1 Multiplicity = 1

                         Standard orientation:
 ---------------------------------------------------------------------
 Center     Atomic      Atomic             Coordinates (Angstroms)
 Number     Number       Type             X           Y           Z
 ---------------------------------------------------------------------
      1          7           0       -0.507299   -1.349907   -0.000048
      2          6           0       -1.833956   -1.418157   -0.000022
      3          6           0       -2.562369   -0.226956    0.000049
      4          6           0       -1.895231    0.978791    0.000090
      5          6           0       -0.481340    1.020761    0.000060
      6          6           0        0.204222   -0.195007   -0.000011
      7          6           0        1.678274   -0.421057   -0.000054
      8          8           0        2.148651   -1.528716   -0.000127
      9          8           0        2.365866    0.722728   -0.000029
     10          8           0        0.087168    2.213833    0.000104
     11          1           0        0.062978   -2.199776   -0.000100
     12          1           0       -2.283277   -2.402833   -0.000059
     13          1           0       -3.644769   -0.265914    0.000072
     14          1           0       -2.431025    1.922283    0.000146
     15          1           0        3.319937    0.541326   -0.000069
     16          1           0        1.056161    2.161261    0.000082
 ---------------------------------------------------------------------

 SCF Done:  E(RwB97XD) =  -512.313539925     A.U. after    1 cycles

 The electronic state is 1-A.
 Alpha  occ. eigenvalues --  -19.52369 -19.49982 -19.46083 -14.75509 -10.63971
 Alpha  occ. eigenvalues --  -10.59334 -10.57042 -10.56872 -10.52619 -10.52324
 Alpha  occ. eigenvalues --   -1.41464  -1.37282  -1.33184  -1.31025  -1.12591
 Alpha  occ. eigenvalues --   -1.10250  -0.99300  -0.96107  -0.93328  -0.87737
 Alpha  occ. eigenvalues --   -0.84587  -0.80944  -0.78759  -0.76693  -0.76366
 Alpha  occ. eigenvalues --   -0.75991  -0.71627  -0.69829  -0.68820  -0.67967
 Alpha  occ. eigenvalues --   -0.67867  -0.63185  -0.60270  -0.57510  -0.56649
 Alpha  occ. eigenvalues --   -0.52107
 Alpha virt. eigenvalues --   -0.20716  -0.15314  -0.08193  -0.06972  -0.06404
 Alpha virt. eigenvalues --   -0.04766  -0.04106  -0.03036  -0.02924  -0.01915
 Alpha virt. eigenvalues --    0.00310   0.00451   0.01511   0.01808   0.02787

 Mulliken charges:
               1
     1  N   -0.189324
     2  C   -0.168137
     3  C    0.073356
     4  C    0.026610
     5  C    0.345840
     6  C    0.074433
     7  C    0.350882
     8  O   -0.432129
     9  O   -0.584593
    10  O   -0.502792
    11  H    0.391554
    12  H    0.240866
    13  H    0.240027
    14  H    0.239925
    15  H    0.457517
    16  H    0.435965
 Sum of Mulliken charges =   1.00000

 Dipole moment (field-independent basis, Debye):
    X=             -2.6259    Y=             -1.2041    Z=              0.0000  Tot=              2.8889
 Quadrupole moment (field-independent basis, Debye-Ang):
   XX=            -24.8311   YY=            -44.2865   ZZ=            -55.9937
   XY=              9.8572   XZ=             -0.0003   YZ=              0.0003

  Exact polarizability: 106.369   1.240  92.180  -0.002   0.002  40.613
 Approx polarizability: 112.468   0.873 115.552  -0.002   0.003  48.157

                      1                      2                      3
                      A                      A                      A
 Frequencies --     93.4308               135.4427               232.4406
 Red. masses --     10.3671                 4.4996                 6.4556
 Frc consts  --      0.0533                 0.0486                 0.2055
 IR Inten    --      5.1398                 0.0106                 7.2344

                      4                      5                      6
                      A                      A                      A
 Frequencies --    245.4489               372.4753               415.1229
 Red. masses --      4.7277                 8.0724                 6.9150
 Frc consts  --      0.1678                 0.6599                 0.7021
 IR Inten    --      2.1561                 5.8311                14.6971

                      7                      8                      9
                      A                      A                      A
 Frequencies --    416.4198               549.3492               556.6699
 Red. masses --      3.3333                 3.0881                 6.0318
 Frc consts  --      0.3406                 0.5491                 1.1013
 IR Inten    --     10.4360                 4.3109                 3.1105

                     10                     11                     12
                      A                      A                      A
 Frequencies --    577.8871               592.6871               604.9289
 Red. masses --      6.6067                 1.2357                 1.1995
 Frc consts  --      1.2999                 0.2557                 0.2586
 IR Inten    --     11.9703               179.6161                 2.8725

                     13                     14                     15
                      A                      A                      A
 Frequencies --    640.4570               683.3013               759.5927
 Red. masses --      5.1152                 2.8151                 4.5202
 Frc consts  --      1.2362                 0.7744                 1.5366
 IR Inten    --     36.1047               112.3418                16.9827

                     16                     17                     18
                      A                      A                      A
 Frequencies --    786.6488               810.1156               891.4490
 Red. masses --      9.6127                 1.3702                 5.8697
 Frc consts  --      3.5048                 0.5298                 2.7483
 IR Inten    --     24.7793                72.8483                21.7349

                     19                     20                     21
                      A                      A                      A
 Frequencies --    908.5391               990.1556              1027.1856
 Red. masses --      1.2740                 1.3041                 1.3327
 Frc consts  --      0.6196                 0.7533                 0.8285
 IR Inten    --     11.0999                15.8814                 0.0033

                     22                     23                     24
                      A                      A                      A
 Frequencies --   1085.1744              1133.0665              1180.8016
 Red. masses --      2.4238                 2.1302                 1.8130
 Frc consts  --      1.6817                 1.6113                 1.4894
 IR Inten    --     14.8790                15.7506                41.7072

                     25                     26                     27
                      A                      A                      A
 Frequencies --   1198.5153              1269.8323              1286.9419
 Red. masses --      1.7138                 1.3824                 1.4277
 Frc consts  --      1.4504                 1.3133                 1.3932
 IR Inten    --    134.6071                 5.0537               260.0235

                     28                     29                     30
                      A                      A                      A
 Frequencies --   1345.3774              1386.9517              1416.7277
 Red. masses --      3.8659                 1.4752                 2.4051
 Frc consts  --      4.1228                 1.6719                 2.8442
 IR Inten    --    151.8175                48.7560                89.6431

                     31                     32                     33
                      A                      A                      A
 Frequencies --   1462.7614              1556.7142              1594.4781
 Red. masses --      4.3830                 3.1584                 2.5162
 Frc consts  --      5.5255                 4.5096                 3.7690
 IR Inten    --     23.9102                70.0023               255.8183

                     34                     35                     36
                      A                      A                      A
 Frequencies --   1665.8866              1716.8272              1882.8610
 Red. masses --      6.2431                 5.4037                10.8467
 Frc consts  --     10.2079                 9.3841                22.6561
 IR Inten    --     30.2689                23.5813               361.8029

                     37                     38                     39
                      A                      A                      A
 Frequencies --   3255.2332              3273.2037              3288.6286
 Red. masses --      1.0931                 1.0955                 1.0992
 Frc consts  --      6.8245                 6.9155                 7.0039
 IR Inten    --      5.8521                 8.1598                17.1721

                     40                     41                     42
                      A                      A                      A
 Frequencies --   3509.9924              3783.2977              3805.6744
 Red. masses --      1.0801                 1.0663                 1.0650
 Frc consts  --      7.8399                 8.9924                 9.0882
 IR Inten    --    195.5615               338.9187               175.1982

 - Thermochemistry -
 -------------------
 Temperature   298.150 Kelvin.  Pressure   1.00000 Atm.
 Atom     1 has atomic number  7 and mass  14.00307

 Molecular mass:   140.03477 amu.
 Principal axes and moments of inertia in atomic units:
                           1         2         3
     Eigenvalues --   786.693361440.333812227.02717
           X            0.99952   0.03103   0.00002
           Y           -0.03103   0.99952  -0.00005
           Z           -0.00003   0.00005   1.00000
 This molecule is an asymmetric top.
 Rotational symmetry number  1.
 Warning -- assumption of classical behavior for rotation
           may cause significant error
 Rotational temperatures (Kelvin)      0.11010     0.06013     0.03889
 Rotational constants (GHZ):           2.29408     1.25300     0.81038
 Zero-point vibrational energy     325316.6 (Joules/Mol)
                                   77.75254 (Kcal/Mol)
 Warning -- explicit consideration of  12 degrees of freedom as
           vibrations may cause significant error
 Vibrational temperatures:    134.43   194.87   334.43   353.15   535.91
          (Kelvin)            597.27   599.13   790.39   800.92   831.45
                              852.74   870.36   921.47   983.12  1092.88
                             1131.81  1165.57  1282.59  1307.18  1424.61
                             1477.89  1561.32  1630.23  1698.91  1724.39
                             1827.00  1851.62  1935.70  1995.51  2038.35
                             2104.58  2239.76  2294.10  2396.84  2470.13
                             2709.01  4683.55  4709.40  4731.60  5050.09
                             5443.31  5475.51

 Zero-point correction=                           0.123907 (Hartree/Particle)
 Thermal correction to Energy=                    0.131792
 Thermal correction to Enthalpy=                  0.132736
 Thermal correction to Gibbs Free Energy=         0.091084
 Sum of electronic and zero-point Energies=           -512.189633
 Sum of electronic and thermal Energies=              -512.181748
 Sum of electronic and thermal Enthalpies=            -512.180804
 Sum of electronic and thermal Free Energies=         -512.222456

                     E (Thermal)             CV                S
                      KCal/Mol        Cal/Mol-Kelvin    Cal/Mol-Kelvin
 Total                   82.701             30.703             87.665
 Electronic               0.000              0.000              0.000
 Translational            0.889              2.981             40.722
 Rotational               0.889              2.981             29.313
 Vibrational             80.923             24.741             17.630
 Vibration     1          0.602              1.954              3.587
 Vibration     2          0.613              1.918              2.867
 Vibration     3          0.653              1.791              1.860
 Vibration     4          0.660              1.770              1.763
 Vibration     5          0.744              1.529              1.070
 Vibration     6          0.779              1.437              0.909
 Vibration     7          0.780              1.435              0.904
 Vibration     8          0.905              1.141              0.546
 Vibration     9          0.912              1.125              0.531
 Vibration    10          0.934              1.079              0.489
 Vibration    11          0.950              1.047              0.462
 Vibration    12          0.963              1.021              0.441

 Optimization completed.
    -- Stationary point found.
 Normal termination of Gaussian 09 at Sun May 19 23:44:40 2024.
