 Gaussian 09, Revision E.01,
 Gaussian 09:  ES64L-G09RevE.01 30-Nov-2015

 -----------------------------
 # opt freq wb97xd/6-31+g(d,p)
 -----------------------------

 ----------
 [No Title]
 ----------
 Symbolic Z-matrix:
 Charge =  0 Multiplicity = 1

 SCF Done:  E(RwB97XD) =  -511.950584266     A.U. after   16 cycles
 SCF Done:  E(RwB97XD) =  -511.950616134     A.U. after   13 cycles
 SCF Done:  E(RwB97XD) =  -511.950653018     A.U. after   12 cycles
 SCF Done:  E(RwB97XD) =  -511.950656552     A.U. after   10 cycles
 Optimization completed.
    -- Stationary point found.
 Normal termination of Gaussian 09 at Sun May 19 23:24:45 2024.

 ----------------------------------------------------------------------
 #N Geom=AllCheck Guess=TCheck SCRF=Check GenChk RwB97XD/6-31+G(d,p) Fr
 eq
 ----------------------------------------------------------------------

 Structure from the checkpoint file:  "WB97XD3HPA.chk"
 ----------
 [No Title]
 ----------
 Charge =  0 Multiplicity = 1

                         Standard orientation:
 ---------------------------------------------------------------------
 Center     Atomic      Atomic             Coordinates (Angstroms)
 Number     Number       Type             X           Y           Z
 ---------------------------------------------------------------------
      1          7           0       -0.435323   -1.445496   -0.000045
      2          6           0       -1.756324   -1.481828    0.000004
      3          6           0       -2.546555   -0.321389    0.000057
      4          6           0       -1.932088    0.913094    0.000048
      5          6           0       -0.530746    0.970915   -0.000014
      6          6           0        0.173613   -0.250392   -0.000055
      7          6           0        1.653053   -0.221281   -0.000085
      8          8           0        2.297493    0.824071    0.000128
      9          8           0        2.247080   -1.408600   -0.000012
     10          8           0        0.054483    2.172037   -0.000057
     11          1           0       -2.215843   -2.465889    0.000010
     12          1           0       -3.628596   -0.401509    0.000100
     13          1           0       -2.492988    1.841270    0.000078
     14          1           0        3.201024   -1.245750    0.000091
     15          1           0        1.025497    2.035562   -0.000164
 ---------------------------------------------------------------------

 SCF Done:  E(RwB97XD) =  -511.950656552     A.U. after    1 cycles

 The electronic state is 1-A.
 Alpha  occ. eigenvalues --  -19.34804 -19.31955 -19.29715 -14.47735 -10.46548
 Alpha  occ. eigenvalues --  -10.40008 -10.36354 -10.34906 -10.33807 -10.33517
 Alpha  occ. eigenvalues --   -1.24511  -1.19098  -1.14455  -1.06943  -0.92444
 Alpha  occ. eigenvalues --   -0.89164  -0.79799  -0.74567  -0.73338  -0.65715
 Alpha  occ. eigenvalues --   -0.64660  -0.61145  -0.59251  -0.57664  -0.57230
 Alpha  occ. eigenvalues --   -0.52564  -0.52036  -0.50806  -0.49489  -0.48686
 Alpha  occ. eigenvalues --   -0.47185  -0.43196  -0.40138  -0.38087  -0.35640
 Alpha  occ. eigenvalues --   -0.32983
 Alpha virt. eigenvalues --   -0.00989   0.04033   0.05918   0.06621   0.08469
 Alpha virt. eigenvalues --    0.08921   0.10043   0.10436   0.10473   0.11199
 Alpha virt. eigenvalues --    0.13069   0.13381   0.14300   0.14741   0.16079

 Mulliken charges:
               1
     1  N   -0.186193
     2  C   -0.179969
     3  C    0.048756
     4  C    0.021019
     5  C    0.005817
     6  C    0.021521
     7  C    0.502445
     8  O   -0.563878
     9  O   -0.434430
    10  O   -0.553558
    11  H    0.154776
    12  H    0.171754
    13  H    0.182095
    14  H    0.394282
    15  H    0.415562
 Sum of Mulliken charges =   0.00000

 Dipole moment (field-independent basis, Debye):
    X=             -1.2541    Y=             -0.4673    Z=             -0.0002  Tot=              1.3384
 Quadrupole moment (field-independent basis, Debye-Ang):
   XX=            -43.0487   YY=            -62.1718   ZZ=            -58.0898
   XY=             -2.3294   XZ=             -0.0009   YZ=             -0.0010

  Exact polarizability: 114.021   3.472  95.318  -0.001   0.001  46.012
 Approx polarizability: 118.892   5.897 116.339  -0.001   0.001  53.416

                      1                      2                      3
                      A                      A                      A
 Frequencies --     85.5954               138.4651               246.1611
 Red. masses --      8.9991                 5.9013                 6.4812
 Frc consts  --      0.0388                 0.0667                 0.2314
 IR Inten    --      1.3060                 3.1297                 2.7605

                      4                      5                      6
                      A                      A                      A
 Frequencies --    255.5905               365.8169               439.1672
 Red. masses --      4.8971                 7.5246                 3.8111
 Frc consts  --      0.1885                 0.5933                 0.4331
 IR Inten    --      1.7504                11.4240                 0.4612

                      7                      8                      9
                      A                      A                      A
 Frequencies --    443.7681               534.5743               556.4009
 Red. masses --      9.6189                 5.5617                 3.6928
 Frc consts  --      1.1161                 0.9364                 0.6736
 IR Inten    --      3.1695                 4.0996                 0.6733

                     10                     11                     12
                      A                      A                      A
 Frequencies --    583.7883               617.7447               658.4828
 Red. masses --      7.5304                 1.2544                 6.1583
 Frc consts  --      1.5121                 0.2820                 1.5733
 IR Inten    --      6.0209                75.0507                70.7307

                     13                     14                     15
                      A                      A                      A
 Frequencies --    736.1034               768.8828               778.0120
 Red. masses --      3.1041                 4.5744                 1.0793
 Frc consts  --      0.9910                 1.5933                 0.3849
 IR Inten    --     54.0966                31.1559               140.3657

                     16                     17                     18
                      A                      A                      A
 Frequencies --    824.6507               830.9340               887.8896
 Red. masses --      5.3114                 1.6368                 6.9891
 Frc consts  --      2.1282                 0.6659                 3.2463
 IR Inten    --     27.7386                 2.8846                 8.9559

                     19                     20                     21
                      A                      A                      A
 Frequencies --    950.3679              1008.9621              1082.1936
 Red. masses --      1.3910                 1.3563                 2.4374
 Frc consts  --      0.7402                 0.8135                 1.6819
 IR Inten    --      0.2626                 1.0392                 3.5235

                     22                     23                     24
                      A                      A                      A
 Frequencies --   1130.0288              1166.3522              1211.5189
 Red. masses --      2.9374                 1.4248                 2.0275
 Frc consts  --      2.2100                 1.1420                 1.7534
 IR Inten    --     43.0561                 2.1039               390.9110

                     25                     26                     27
                      A                      A                      A
 Frequencies --   1283.2891              1317.0463              1374.2816
 Red. masses --      1.7739                 2.6493                 3.5373
 Frc consts  --      1.7212                 2.7076                 3.9361
 IR Inten    --      3.6148                59.5367                67.8435

                     28                     29                     30
                      A                      A                      A
 Frequencies --   1384.3809              1480.2352              1512.2976
 Red. masses --      1.5784                 3.3339                 3.2528
 Frc consts  --      1.7823                 4.3039                 4.3831
 IR Inten    --     35.1703               184.1292               224.2671

                     31                     32                     33
                      A                      A                      A
 Frequencies --   1529.2527              1652.3266              1683.6585
 Red. masses --      2.8988                 4.7014                 7.2585
 Frc consts  --      3.9941                 7.5626                12.1228
 IR Inten    --     10.5353                22.6502                 5.7459

                     34                     35                     36
                      A                      A                      A
 Frequencies --   1784.6557              3219.8826              3236.6627
 Red. masses --      8.3578                 1.0888                 1.0921
 Frc consts  --     15.6837                 6.6511                 6.7410
 IR Inten    --    390.2876                 6.7528                13.4611

                     37                     38                     39
                      A                      A                      A
 Frequencies --   3251.4211              3548.8659              3842.6818
 Red. masses --      1.0979                 1.0672                 1.0645
 Frc consts  --      6.8385                 7.9187                 9.2615
 IR Inten    --      4.4335               337.6195               121.2836

 - Thermochemistry -
 -------------------
 Temperature   298.150 Kelvin.  Pressure   1.00000 Atm.
 Atom     1 has atomic number  7 and mass  14.00307

 Molecular mass:   139.02694 amu.
 Principal axes and moments of inertia in atomic units:
                           1         2         3
     Eigenvalues --   760.670611427.744562188.41516
           X            1.00000   0.00228   0.00000
           Y           -0.00228   1.00000  -0.00000
           Z           -0.00000   0.00000   1.00000
 This molecule is an asymmetric top.
 Rotational symmetry number  1.
 Warning -- assumption of classical behavior for rotation
           may cause significant error
 Rotational temperatures (Kelvin)      0.11387     0.06066     0.03958
 Rotational constants (GHZ):           2.37257     1.26405     0.82468
 Zero-point vibrational energy     289510.6 (Joules/Mol)
                                   69.19469 (Kcal/Mol)
 Warning -- explicit consideration of  11 degrees of freedom as
           vibrations may cause significant error
 Vibrational temperatures:    123.15   199.22   354.17   367.74   526.33
          (Kelvin)            631.86   638.48   769.13   800.54   839.94
                              888.80   947.41  1059.09  1106.25  1119.38
                             1186.49  1195.53  1277.47  1367.37  1451.67
                             1557.03  1625.86  1678.12  1743.10  1846.36
                             1894.93  1977.28  1991.81  2129.73  2175.86
                             2200.25  2377.33  2422.41  2567.72  4632.69
                             4656.83  4678.06  5106.02  5528.76

 Zero-point correction=                           0.110269 (Hartree/Particle)
 Thermal correction to Energy=                    0.117913
 Thermal correction to Enthalpy=                  0.118858
 Thermal correction to Gibbs Free Energy=         0.077571
 Sum of electronic and zero-point Energies=           -511.840388
 Sum of electronic and thermal Energies=              -511.832743
 Sum of electronic and thermal Enthalpies=            -511.831799
 Sum of electronic and thermal Free Energies=         -511.873086

                     E (Thermal)             CV                S
                      KCal/Mol        Cal/Mol-Kelvin    Cal/Mol-Kelvin
 Total                   73.992             29.444             86.895
 Electronic               0.000              0.000              0.000
 Translational            0.889              2.981             40.700
 Rotational               0.889              2.981             29.254
 Vibrational             72.214             23.482             16.941
 Vibration     1          0.601              1.959              3.758
 Vibration     2          0.614              1.915              2.825
 Vibration     3          0.661              1.769              1.758
 Vibration     4          0.666              1.753              1.692
 Vibration     5          0.739              1.543              1.097
 Vibration     6          0.799              1.385              0.829
 Vibration     7          0.803              1.375              0.815
 Vibration     8          0.890              1.174              0.577
 Vibration     9          0.912              1.126              0.531
 Vibration    10          0.941              1.066              0.478
 Vibration    11          0.978              0.994              0.420

 Optimization completed.
    -- Stationary point found.
 Normal termination of Gaussian 09 at Sun May 19 23:26:10 2024.
