 Gaussian 09, Revision E.01,
 Gaussian 09:  ES64L-G09RevE.01 30-Nov-2015

 -------------------------------------------------------
 # opt freq B2PLYP/6-31+g(d,p) EmpiricalDispersion=GD3BJ
 -------------------------------------------------------

 ----------
 [No Title]
 ----------
 Symbolic Z-matrix:
 Charge =  1 Multiplicity = 1

 SCF Done:  E(RB2PLYP) =  -609.813431014     A.U. after   14 cycles
 E2(B2PLYP) =    -0.5917340595D+00 E(B2PLYP) =    -0.61040516507390D+03
 SCF Done:  E(RB2PLYP) =  -609.812947728     A.U. after   11 cycles
 E2(B2PLYP) =    -0.5923029952D+00 E(B2PLYP) =    -0.61040525072297D+03
 SCF Done:  E(RB2PLYP) =  -609.812538822     A.U. after   12 cycles
 E2(B2PLYP) =    -0.5927260255D+00 E(B2PLYP) =    -0.61040526484781D+03
 SCF Done:  E(RB2PLYP) =  -609.812958670     A.U. after   11 cycles
 E2(B2PLYP) =    -0.5924072729D+00 E(B2PLYP) =    -0.61040536594307D+03
 SCF Done:  E(RB2PLYP) =  -609.812967056     A.U. after   10 cycles
 E2(B2PLYP) =    -0.5923994002D+00 E(B2PLYP) =    -0.61040536645576D+03
 SCF Done:  E(RB2PLYP) =  -609.812961906     A.U. after    8 cycles
 E2(B2PLYP) =    -0.5924052263D+00 E(B2PLYP) =    -0.61040536713223D+03
 Optimization completed.
    -- Stationary point found.
 Normal termination of Gaussian 09 at Thu Dec 19 05:52:01 2024.

 ----------------------------------------------------------------------
 #N Geom=AllCheck Guess=TCheck SCRF=Check GenChk RB2PLYP(FC)/6-31+G(d,p
 ) Freq
 ----------------------------------------------------------------------

 Structure from the checkpoint file:  "B2PLYPTHAPD3BJyang.chk"
 ----------
 [No Title]
 ----------
 Charge =  1 Multiplicity = 1

                         Standard orientation:
 ---------------------------------------------------------------------
 Center     Atomic      Atomic             Coordinates (Angstroms)
 Number     Number       Type             X           Y           Z
 ---------------------------------------------------------------------
      1          6           0        1.548318   -1.265897   -0.000270
      2          6           0        2.282793   -0.075720   -0.000136
      3          6           0        1.636871    1.175174    0.000004
      4          6           0        0.260224    1.211165    0.000053
      5          6           0       -0.556328    0.025704   -0.000023
      6          6           0        0.165481   -1.223062   -0.000230
      7          8           0       -0.561285   -2.354894   -0.000381
      8          6           0       -1.979053    0.081904    0.000221
      9          6           0       -2.906216   -1.083102    0.000223
     10          8           0       -2.629016    1.215671    0.000484
     11          8           0       -0.405435    2.401477    0.000104
     12          8           0        3.613208   -0.201052   -0.000187
     13          1           0        2.081149   -2.208599   -0.000415
     14          1           0        2.211538    2.094469    0.000022
     15          1           0        0.013720   -3.134473   -0.000500
     16          1           0       -2.731633   -1.710363   -0.874588
     17          1           0       -2.731250   -1.710691    0.874719
     18          1           0       -3.926758   -0.708605    0.000510
     19          1           0       -2.024750    1.991423    0.000490
     20          1           0        0.188658    3.165974    0.000629
     21          1           0        4.067012    0.654265   -0.000091
 ---------------------------------------------------------------------

 SCF Done:  E(RB2PLYP) =  -609.812961906     A.U. after    1 cycles
 E2(B2PLYP) =    -0.5924052210D+00 E(B2PLYP) =    -0.61040536712691D+03
 E2(B2PLYP) =    -0.5924052210D+00 E(B2PLYP) =    -0.61040536712691D+03

 The electronic state is 1-A.
 Alpha  occ. eigenvalues --  -19.98298 -19.97612 -19.95760 -19.95415 -10.93222
 Alpha  occ. eigenvalues --  -10.90671 -10.89846 -10.89578 -10.82508 -10.80400
 Alpha  occ. eigenvalues --  -10.79100 -10.77542  -1.43011  -1.40334  -1.39446
 Alpha  occ. eigenvalues --   -1.38941  -1.15910  -1.08274  -1.04039  -1.02218
 Alpha  occ. eigenvalues --   -0.92984  -0.91504  -0.88567  -0.84484  -0.82624
 Alpha  occ. eigenvalues --   -0.80373  -0.76133  -0.73630  -0.70914  -0.69686
 Alpha  occ. eigenvalues --   -0.69325  -0.68691  -0.67215  -0.66062  -0.65001
 Alpha  occ. eigenvalues --   -0.64180  -0.63023  -0.61097  -0.60516  -0.59184
 Alpha  occ. eigenvalues --   -0.58778  -0.53780  -0.45595  -0.44493
 Alpha virt. eigenvalues --   -0.19545  -0.11148  -0.10918  -0.09119  -0.08898
 Alpha virt. eigenvalues --   -0.07641  -0.07343  -0.05281  -0.05029  -0.04323
 Alpha virt. eigenvalues --   -0.03441  -0.02759  -0.01786  -0.00974  -0.00857

 Mulliken charges:
               1
     1  C    1.015942
     2  C   -0.797511
     3  C    0.817612
     4  C   -0.943802
     5  C    2.026896
     6  C   -2.109505
     7  O   -0.536921
     8  C    0.492688
     9  C   -0.092655
    10  O   -0.434127
    11  O   -0.648316
    12  O   -0.494890
    13  H    0.182543
    14  H    0.159604
    15  H    0.420913
    16  H    0.210852
    17  H    0.210844
    18  H    0.206474
    19  H    0.482536
    20  H    0.438286
    21  H    0.392539
 Sum of Mulliken charges =   1.00000

 Dipole moment (field-independent basis, Debye):
    X=              1.5515    Y=              1.6925    Z=              0.0011  Tot=              2.2960
 Quadrupole moment (field-independent basis, Debye-Ang):
   XX=            -44.0433   YY=            -37.1941   ZZ=            -70.0063
   XY=              9.2588   XZ=             -0.0010   YZ=              0.0063

  Exact polarizability: 164.927   1.322 115.926  -0.008   0.008  55.675
 Approx polarizability: 179.852  -1.849 134.515  -0.006   0.009  71.207

                      1                      2                      3
                      A                      A                      A
 Frequencies --     50.7498                73.6304               178.5258
 Red. masses --      5.1879                 4.8107                 5.3375
 Frc consts  --      0.0079                 0.0154                 0.1002
 IR Inten    --      1.5610                 2.3314                 1.2498

                      4                      5                      6
                      A                      A                      A
 Frequencies --    200.0422               230.9610               255.3401
 Red. masses --      4.3020                 1.1624                 1.9665
 Frc consts  --      0.1014                 0.0365                 0.0755
 IR Inten    --     10.7815                 1.4707                69.9667

                      7                      8                      9
                      A                      A                      A
 Frequencies --    267.8944               294.5333               348.0570
 Red. masses --      4.7971                 1.5482                 5.5485
 Frc consts  --      0.2028                 0.0791                 0.3960
 IR Inten    --      1.4645                67.1682                12.9585

                     10                     11                     12
                      A                      A                      A
 Frequencies --    373.4209               397.7082               425.8593
 Red. masses --      4.9352                 5.0088                 5.6670
 Frc consts  --      0.4055                 0.4668                 0.6055
 IR Inten    --      4.7278                 5.3312                 5.4115

                     13                     14                     15
                      A                      A                      A
 Frequencies --    433.1347               449.2448               519.3622
 Red. masses --      1.1408                 1.1171                 5.5458
 Frc consts  --      0.1261                 0.1328                 0.8814
 IR Inten    --      4.5351               210.9417                 0.2770

                     16                     17                     18
                      A                      A                      A
 Frequencies --    527.2209               544.7727               565.6626
 Red. masses --      7.0331                 4.0122                 3.6060
 Frc consts  --      1.1518                 0.7016                 0.6798
 IR Inten    --      4.7225                 9.2876                 0.1180

                     19                     20                     21
                      A                      A                      A
 Frequencies --    600.0808               608.4104               640.9692
 Red. masses --      3.6586                 7.9983                 4.5223
 Frc consts  --      0.7762                 1.7444                 1.0947
 IR Inten    --     10.2818                 0.3922                18.3757

                     22                     23                     24
                      A                      A                      A
 Frequencies --    643.9067               719.0946               764.1834
 Red. masses --      3.5224                 4.3105                 1.3626
 Frc consts  --      0.8605                 1.3133                 0.4688
 IR Inten    --     29.5448                 5.5301                78.6078

                     25                     26                     27
                      A                      A                      A
 Frequencies --    803.9630               818.6264               994.4540
 Red. masses --      1.3391                 1.1963                 2.2948
 Frc consts  --      0.5100                 0.4724                 1.3371
 IR Inten    --     37.0560                77.5752                38.4486

                     28                     29                     30
                      A                      A                      A
 Frequencies --   1041.9181              1058.6385              1086.1774
 Red. masses --      3.3825                 1.5924                 3.9278
 Frc consts  --      2.1635                 1.0514                 2.7302
 IR Inten    --      0.2330                 0.0377               128.1108

                     31                     32                     33
                      A                      A                      A
 Frequencies --   1099.0439              1189.1044              1201.8055
 Red. masses --      2.0293                 1.3234                 1.2150
 Frc consts  --      1.4442                 1.1025                 1.0340
 IR Inten    --     39.1204               102.9834                91.4950

                     34                     35                     36
                      A                      A                      A
 Frequencies --   1229.2323              1249.8544              1299.3816
 Red. masses --      1.5883                 2.1153                 2.0657
 Frc consts  --      1.4140                 1.9469                 2.0550
 IR Inten    --    121.5517                29.2436                70.2010

                     37                     38                     39
                      A                      A                      A
 Frequencies --   1327.5708              1399.1462              1420.2935
 Red. masses --      1.9802                 3.1576                 1.1712
 Frc consts  --      2.0563                 3.6420                 1.3920
 IR Inten    --    169.1080               346.7367                52.6029

                     40                     41                     42
                      A                      A                      A
 Frequencies --   1448.0639              1454.0675              1484.0232
 Red. masses --      1.9560                 4.4551                 1.0446
 Frc consts  --      2.4166                 5.5498                 1.3555
 IR Inten    --      9.3460                44.4506                17.9207

                     43                     44                     45
                      A                      A                      A
 Frequencies --   1497.2321              1530.3624              1558.2232
 Red. masses --      2.1410                 2.2901                 3.7766
 Frc consts  --      2.8278                 3.1601                 5.4027
 IR Inten    --    381.5987               229.7073               195.5785

                     46                     47                     48
                      A                      A                      A
 Frequencies --   1589.4051              1626.1958              1698.2417
 Red. masses --      3.3803                 5.6833                 6.8609
 Frc consts  --      5.0312                 8.8551                11.6582
 IR Inten    --    220.8838               198.8689               860.5285

                     49                     50                     51
                      A                      A                      A
 Frequencies --   3105.5867              3180.3723              3221.8664
 Red. masses --      1.0354                 1.0990                 1.1063
 Frc consts  --      5.8839                 6.5493                 6.7663
 IR Inten    --     11.7032                 1.1113                 5.8685

                     52                     53                     54
                      A                      A                      A
 Frequencies --   3223.6140              3245.1661              3502.8075
 Red. masses --      1.0935                 1.0937                 1.0668
 Frc consts  --      6.6948                 6.7859                 7.7123
 IR Inten    --      0.1110                 3.2983               277.6414

                     55                     56                     57
                      A                      A                      A
 Frequencies --   3808.5730              3815.9065              3819.1447
 Red. masses --      1.0666                 1.0670                 1.0672
 Frc consts  --      9.1157                 9.1539                 9.1710
 IR Inten    --    178.3201               120.6930               250.5413

 - Thermochemistry -
 -------------------
 Temperature   298.150 Kelvin.  Pressure   1.00000 Atm.
 Atom     1 has atomic number  6 and mass  12.00000

 Molecular mass:   169.05008 amu.
 Principal axes and moments of inertia in atomic units:
                           1         2         3
     Eigenvalues --  1186.092952379.348313554.42801
           X            0.99943   0.03373   0.00008
           Y           -0.03373   0.99943  -0.00011
           Z           -0.00008   0.00011   1.00000
 This molecule is an asymmetric top.
 Rotational symmetry number  1.
 Warning -- assumption of classical behavior for rotation
           may cause significant error
 Rotational temperatures (Kelvin)      0.07302     0.03640     0.02437
 Rotational constants (GHZ):           1.52158     0.75850     0.50774
 Zero-point vibrational energy     431498.0 (Joules/Mol)
                                  103.13049 (Kcal/Mol)
 Warning -- explicit consideration of  20 degrees of freedom as
           vibrations may cause significant error
 Vibrational temperatures:     73.02   105.94   256.86   287.82   332.30
          (Kelvin)            367.38   385.44   423.77   500.78   537.27
                              572.21   612.72   623.18   646.36   747.25
                              758.55   783.81   813.86   863.38   875.37
                              922.21   926.44  1034.62  1099.49  1156.72
                             1177.82  1430.80  1499.09  1523.14  1562.77
                             1581.28  1710.85  1729.13  1768.59  1798.26
                             1869.52  1910.08  2013.06  2043.48  2083.44
                             2092.08  2135.18  2154.18  2201.85  2241.93
                             2286.80  2339.73  2443.39  4468.24  4575.84
                             4635.54  4638.06  4669.06  5039.75  5479.68
                             5490.23  5494.89

 Zero-point correction=                           0.164349 (Hartree/Particle)
 Thermal correction to Energy=                    0.175689
 Thermal correction to Enthalpy=                  0.176633
 Thermal correction to Gibbs Free Energy=         0.127604
 Sum of electronic and zero-point Energies=           -610.241018
 Sum of electronic and thermal Energies=              -610.229678
 Sum of electronic and thermal Enthalpies=            -610.228734
 Sum of electronic and thermal Free Energies=         -610.277764

                     E (Thermal)             CV                S
                      KCal/Mol        Cal/Mol-Kelvin    Cal/Mol-Kelvin
 Total                  110.246             44.161            103.191
 Electronic               0.000              0.000              0.000
 Translational            0.889              2.981             41.283
 Rotational               0.889              2.981             30.685
 Vibrational            108.469             38.199             31.224
 Vibration     1          0.595              1.977              4.788
 Vibration     2          0.599              1.966              4.054
 Vibration     3          0.629              1.869              2.344
 Vibration     4          0.638              1.840              2.133
 Vibration     5          0.653              1.794              1.871
 Vibration     6          0.666              1.754              1.693
 Vibration     7          0.673              1.732              1.610
 Vibration     8          0.689              1.684              1.448
 Vibration     9          0.726              1.579              1.175
 Vibration    10          0.745              1.527              1.066
 Vibration    11          0.764              1.475              0.971
 Vibration    12          0.788              1.414              0.872
 Vibration    13          0.794              1.398              0.848
 Vibration    14          0.808              1.363              0.798
 Vibration    15          0.874              1.207              0.611
 Vibration    16          0.882              1.190              0.593
 Vibration    17          0.900              1.151              0.555
 Vibration    18          0.922              1.106              0.513
 Vibration    19          0.958              1.032              0.450
 Vibration    20          0.967              1.014              0.435

 Optimization completed.
    -- Stationary point found.
 Normal termination of Gaussian 09 at Thu Dec 19 06:36:27 2024.
