 Gaussian 09, Revision E.01,
 Gaussian 09:  ES64L-G09RevE.01 30-Nov-2015

 -------------------------------------------------------
 # opt freq B2PLYP/6-31+g(d,p) EmpiricalDispersion=GD3BJ
 -------------------------------------------------------

 ----------
 [No Title]
 ----------
 Symbolic Z-matrix:
 Charge =  0 Multiplicity = 1

 SCF Done:  E(RB2PLYP) =  -609.456297395     A.U. after   15 cycles
 E2(B2PLYP) =    -0.5973722691D+00 E(B2PLYP) =    -0.61005366966399D+03
 SCF Done:  E(RB2PLYP) =  -609.455389319     A.U. after   13 cycles
 E2(B2PLYP) =    -0.5980534927D+00 E(B2PLYP) =    -0.61005344281183D+03
 SCF Done:  E(RB2PLYP) =  -609.455802801     A.U. after   12 cycles
 E2(B2PLYP) =    -0.5981803385D+00 E(B2PLYP) =    -0.61005398313954D+03
 SCF Done:  E(RB2PLYP) =  -609.455964828     A.U. after   11 cycles
 E2(B2PLYP) =    -0.5980580634D+00 E(B2PLYP) =    -0.61005402289124D+03
 SCF Done:  E(RB2PLYP) =  -609.456070078     A.U. after   11 cycles
 E2(B2PLYP) =    -0.5979563373D+00 E(B2PLYP) =    -0.61005402641532D+03
 SCF Done:  E(RB2PLYP) =  -609.456150777     A.U. after   11 cycles
 E2(B2PLYP) =    -0.5978776281D+00 E(B2PLYP) =    -0.61005402840508D+03
 SCF Done:  E(RB2PLYP) =  -609.456097390     A.U. after   10 cycles
 E2(B2PLYP) =    -0.5979364725D+00 E(B2PLYP) =    -0.61005403386240D+03
 Optimization completed.
    -- Stationary point found.
 Normal termination of Gaussian 09 at Thu Dec 19 00:32:44 2024.

 ----------------------------------------------------------------------
 #N Geom=AllCheck Guess=TCheck SCRF=Check GenChk RB2PLYP(FC)/6-31+G(d,p
 ) Freq
 ----------------------------------------------------------------------

 Structure from the checkpoint file:  "B2PLYPD3BJTHAP.chk"
 ----------
 [No Title]
 ----------
 Charge =  0 Multiplicity = 1

                         Standard orientation:
 ---------------------------------------------------------------------
 Center     Atomic      Atomic             Coordinates (Angstroms)
 Number     Number       Type             X           Y           Z
 ---------------------------------------------------------------------
      1          6           0       -1.526516    1.251091    0.000033
      2          6           0       -2.260187    0.058323   -0.000010
      3          6           0       -1.626661   -1.177274   -0.000050
      4          6           0       -0.228702   -1.229041   -0.000035
      5          6           0        0.567801   -0.038531    0.000055
      6          6           0       -0.140451    1.194307    0.000056
      7          8           0        0.585049    2.354403    0.000123
      8          6           0        2.029281   -0.166142    0.000166
      9          6           0        2.952651    1.025018   -0.000073
     10          8           0        2.555679   -1.303234    0.000117
     11          8           0        0.330295   -2.444784   -0.000216
     12          8           0       -3.617323    0.185117   -0.000035
     13          1           0       -2.052593    2.198223    0.000053
     14          1           0       -2.179618   -2.108757   -0.000121
     15          1           0       -0.023646    3.104254    0.000138
     16          1           0        2.777872    1.651898    0.874887
     17          1           0        3.973923    0.649184   -0.000092
     18          1           0        2.777757    1.651673   -0.875172
     19          1           0        1.319604   -2.294941   -0.000373
     20          1           0       -4.026198   -0.690076   -0.000078
 ---------------------------------------------------------------------

 SCF Done:  E(RB2PLYP) =  -609.456097390     A.U. after    1 cycles
 E2(B2PLYP) =    -0.5979364718D+00 E(B2PLYP) =    -0.61005403386173D+03
 E2(B2PLYP) =    -0.5979364718D+00 E(B2PLYP) =    -0.61005403386173D+03

 The electronic state is 1-A.
 Alpha  occ. eigenvalues --  -19.80831 -19.80518 -19.76876 -19.74725 -10.74149
 Alpha  occ. eigenvalues --  -10.73413 -10.72909 -10.72567 -10.64894 -10.63914
 Alpha  occ. eigenvalues --  -10.63384 -10.62593  -1.23885  -1.23330  -1.21943
 Alpha  occ. eigenvalues --   -1.18115  -0.99044  -0.90147  -0.87330  -0.84838
 Alpha  occ. eigenvalues --   -0.75877  -0.73787  -0.68575  -0.67285  -0.60869
 Alpha  occ. eigenvalues --   -0.60295  -0.58950  -0.56399  -0.53630  -0.52613
 Alpha  occ. eigenvalues --   -0.51442  -0.50599  -0.49581  -0.49232  -0.48909
 Alpha  occ. eigenvalues --   -0.47668  -0.46049  -0.44416  -0.44049  -0.42434
 Alpha  occ. eigenvalues --   -0.37043  -0.33694  -0.28889  -0.27626
 Alpha virt. eigenvalues --   -0.00575   0.01599   0.02394   0.04516   0.04516
 Alpha virt. eigenvalues --    0.06059   0.06489   0.07192   0.07460   0.08035
 Alpha virt. eigenvalues --    0.08844   0.09119   0.10786   0.10989   0.11636

 Mulliken charges:
               1
     1  C    0.905019
     2  C   -0.655289
     3  C    0.976756
     4  C   -1.102562
     5  C    2.035268
     6  C   -2.072779
     7  O   -0.560472
     8  C    0.500290
     9  C   -0.359722
    10  O   -0.547905
    11  O   -0.598308
    12  O   -0.550222
    13  H    0.139729
    14  H    0.145637
    15  H    0.390783
    16  H    0.172700
    17  H    0.173627
    18  H    0.172706
    19  H    0.463451
    20  H    0.371294
 Sum of Mulliken charges =  -0.00000

 Dipole moment (field-independent basis, Debye):
    X=             -2.3604    Y=              3.2513    Z=             -0.0004  Tot=              4.0178
 Quadrupole moment (field-independent basis, Debye-Ang):
   XX=            -67.8907   YY=            -66.5905   ZZ=            -72.1477
   XY=              9.3207   XZ=             -0.0009   YZ=              0.0012

  Exact polarizability: 153.531  -2.587 122.334   0.001   0.002  61.034
 Approx polarizability: 161.456  -9.434 147.937   0.001   0.003  77.038

                      1                      2                      3
                      A                      A                      A
 Frequencies --     49.3898               100.5368               184.3891
 Red. masses --      3.8099                10.6478                 5.2146
 Frc consts  --      0.0055                 0.0634                 0.1045
 IR Inten    --      1.3746                 0.1205                 4.2390

                      4                      5                      6
                      A                      A                      A
 Frequencies --    213.6234               225.4909               264.3430
 Red. masses --      3.3883                 1.2136                 4.8327
 Frc consts  --      0.0911                 0.0364                 0.1990
 IR Inten    --      1.0068                 0.0701                 1.6006

                      7                      8                      9
                      A                      A                      A
 Frequencies --    266.1457               338.4619               348.3588
 Red. masses --      4.6545                 5.8420                 1.1575
 Frc consts  --      0.1942                 0.3943                 0.0828
 IR Inten    --     11.2865                 8.5512                22.5374

                     10                     11                     12
                      A                      A                      A
 Frequencies --    362.4564               371.3677               377.2884
 Red. masses --      5.2903                 1.1124                 4.8392
 Frc consts  --      0.4095                 0.0904                 0.4059
 IR Inten    --      3.5602               183.0295                 6.0919

                     13                     14                     15
                      A                      A                      A
 Frequencies --    433.6960               518.6788               531.9858
 Red. masses --      6.4956                 7.8697                 6.7527
 Frc consts  --      0.7199                 1.2474                 1.1260
 IR Inten    --      3.6476                 2.1911                 8.8868

                     16                     17                     18
                      A                      A                      A
 Frequencies --    566.8140               575.1932               600.4490
 Red. masses --      3.3931                 5.9439                 4.1550
 Frc consts  --      0.6423                 1.1586                 0.8826
 IR Inten    --      1.1904                21.2150                 2.2784

                     19                     20                     21
                      A                      A                      A
 Frequencies --    611.1815               631.4895               645.0042
 Red. masses --      7.6019                 3.9950                 4.0843
 Frc consts  --      1.6731                 0.9386                 1.0011
 IR Inten    --      6.6201                13.0828                15.3263

                     22                     23                     24
                      A                      A                      A
 Frequencies --    716.6957               751.6932               770.7961
 Red. masses --      4.0856                 1.3260                 1.4124
 Frc consts  --      1.2364                 0.4415                 0.4944
 IR Inten    --     12.7408                65.5481                21.4998

                     25                     26                     27
                      A                      A                      A
 Frequencies --    925.2472               986.5158              1038.3115
 Red. masses --      1.0602                 2.3076                 3.5290
 Frc consts  --      0.5347                 1.3232                 2.2416
 IR Inten    --     84.7674                43.5551                16.8769

                     28                     29                     30
                      A                      A                      A
 Frequencies --   1050.9470              1090.0866              1101.0743
 Red. masses --      1.6924                 3.8562                 2.9113
 Frc consts  --      1.1013                 2.6998                 2.0796
 IR Inten    --      0.9577               106.5282                19.1602

                     31                     32                     33
                      A                      A                      A
 Frequencies --   1191.8252              1211.3669              1234.3503
 Red. masses --      1.3323                 1.4750                 1.6888
 Frc consts  --      1.1150                 1.2752                 1.5160
 IR Inten    --    184.3195                20.3533               157.8261

                     34                     35                     36
                      A                      A                      A
 Frequencies --   1279.3581              1322.9219              1358.2051
 Red. masses --      1.6767                 3.1924                 3.3063
 Frc consts  --      1.6170                 3.2918                 3.5935
 IR Inten    --    225.6035                99.8944               158.6725

                     37                     38                     39
                      A                      A                      A
 Frequencies --   1418.0709              1429.4579              1461.5363
 Red. masses --      2.3360                 2.0490                 2.5069
 Frc consts  --      2.7678                 2.4668                 3.1551
 IR Inten    --     34.7612                31.2505                43.3890

                     40                     41                     42
                      A                      A                      A
 Frequencies --   1479.1110              1496.5942              1503.0474
 Red. masses --      1.4448                 1.0474                 2.3696
 Frc consts  --      1.8623                 1.3822                 3.1541
 IR Inten    --     31.5326                11.7574               168.7836

                     43                     44                     45
                      A                      A                      A
 Frequencies --   1568.9193              1648.1912              1661.0776
 Red. masses --      2.6177                 4.2032                 7.4220
 Frc consts  --      3.7964                 6.7273                12.0657
 IR Inten    --     95.1186                 2.8378               384.3727

                     46                     47                     48
                      A                      A                      A
 Frequencies --   1695.5310              3098.7642              3135.8663
 Red. masses --      4.9112                 1.0345                 1.0711
 Frc consts  --      8.3186                 5.8528                 6.2056
 IR Inten    --    661.9848                 4.0402               459.5517

                     49                     50                     51
                      A                      A                      A
 Frequencies --   3177.8526              3204.9842              3230.0918
 Red. masses --      1.0996                 1.1059                 1.0922
 Frc consts  --      6.5424                 6.6932                 6.7141
 IR Inten    --      3.8704                15.6039                 2.6232

                     52                     53                     54
                      A                      A                      A
 Frequencies --   3234.4069              3841.3639              3841.9377
 Red. masses --      1.0924                 1.0662                 1.0663
 Frc consts  --      6.7329                 9.2692                 9.2729
 IR Inten    --      3.5316                91.1049                76.2832

 - Thermochemistry -
 -------------------
 Temperature   298.150 Kelvin.  Pressure   1.00000 Atm.
 Atom     1 has atomic number  6 and mass  12.00000

 Molecular mass:   168.04226 amu.
 Principal axes and moments of inertia in atomic units:
                           1         2         3
     Eigenvalues --  1169.369272361.412513519.75906
           X            0.99941   0.03439  -0.00001
           Y           -0.03439   0.99941  -0.00004
           Z            0.00001   0.00004   1.00000
 This molecule is an asymmetric top.
 Rotational symmetry number  1.
 Warning -- assumption of classical behavior for rotation
           may cause significant error
 Rotational temperatures (Kelvin)      0.07407     0.03668     0.02461
 Rotational constants (GHZ):           1.54335     0.76426     0.51275
 Zero-point vibrational energy     396996.0 (Joules/Mol)
                                   94.88431 (Kcal/Mol)
 Warning -- explicit consideration of  19 degrees of freedom as
           vibrations may cause significant error
 Vibrational temperatures:     71.06   144.65   265.29   307.36   324.43
          (Kelvin)            380.33   382.92   486.97   501.21   521.49
                              534.31   542.83   623.99   746.26   765.41
                              815.52   827.57   863.91   879.35   908.57
                              928.02  1031.16  1081.52  1109.00  1331.22
                             1419.37  1493.90  1512.08  1568.39  1584.20
                             1714.77  1742.88  1775.95  1840.71  1903.39
                             1954.15  2040.29  2056.67  2102.82  2128.11
                             2153.26  2162.55  2257.32  2371.38  2389.92
                             2439.49  4458.42  4511.81  4572.22  4611.25
                             4647.38  4653.58  5526.86  5527.68

 Zero-point correction=                           0.151208 (Hartree/Particle)
 Thermal correction to Energy=                    0.162193
 Thermal correction to Enthalpy=                  0.163137
 Thermal correction to Gibbs Free Energy=         0.114872
 Sum of electronic and zero-point Energies=           -609.902826
 Sum of electronic and thermal Energies=              -609.891841
 Sum of electronic and thermal Enthalpies=            -609.890897
 Sum of electronic and thermal Free Energies=         -609.939162

                     E (Thermal)             CV                S
                      KCal/Mol        Cal/Mol-Kelvin    Cal/Mol-Kelvin
 Total                  101.778             42.560            101.582
 Electronic               0.000              0.000              0.000
 Translational            0.889              2.981             41.265
 Rotational               0.889              2.981             30.653
 Vibrational            100.000             36.598             29.664
 Vibration     1          0.595              1.978              4.842
 Vibration     2          0.604              1.949              3.444
 Vibration     3          0.631              1.861              2.284
 Vibration     4          0.644              1.820              2.012
 Vibration     5          0.650              1.802              1.915
 Vibration     6          0.671              1.738              1.633
 Vibration     7          0.672              1.735              1.621
 Vibration     8          0.719              1.599              1.219
 Vibration     9          0.726              1.579              1.174
 Vibration    10          0.736              1.550              1.112
 Vibration    11          0.743              1.531              1.074
 Vibration    12          0.748              1.519              1.050
 Vibration    13          0.794              1.397              0.847
 Vibration    14          0.874              1.209              0.613
 Vibration    15          0.887              1.179              0.583
 Vibration    16          0.923              1.103              0.510
 Vibration    17          0.932              1.085              0.494
 Vibration    18          0.959              1.031              0.449
 Vibration    19          0.970              1.008              0.431

 Optimization completed.
    -- Stationary point found.
 Normal termination of Gaussian 09 at Thu Dec 19 00:50:46 2024.
