 Gaussian 09, Revision E.01,
 Gaussian 09:  ES64L-G09RevE.01 30-Nov-2015

 -------------------------------------
 # opt freq b3lyp/6-31+g(d,p) em=gd3bj
 -------------------------------------

 ----------
 [No Title]
 ----------
 Symbolic Z-matrix:
 Charge =  1 Multiplicity = 1

 SCF Done:  E(RB3LYP) =  -610.894394661     A.U. after   19 cycles
 SCF Done:  E(RB3LYP) =  -610.935157231     A.U. after   14 cycles
 SCF Done:  E(RB3LYP) =  -610.949198898     A.U. after   15 cycles
 SCF Done:  E(RB3LYP) =  -610.952740990     A.U. after   14 cycles
 SCF Done:  E(RB3LYP) =  -610.947377044     A.U. after   16 cycles
 SCF Done:  E(RB3LYP) =  -610.963731515     A.U. after   13 cycles
 SCF Done:  E(RB3LYP) =  -610.974649573     A.U. after   13 cycles
 SCF Done:  E(RB3LYP) =  -610.961305776     A.U. after   14 cycles
 SCF Done:  E(RB3LYP) =  -610.981482585     A.U. after   12 cycles
 SCF Done:  E(RB3LYP) =  -610.987167497     A.U. after   13 cycles
 SCF Done:  E(RB3LYP) =  -611.007100318     A.U. after   12 cycles
 SCF Done:  E(RB3LYP) =  -611.007169309     A.U. after   11 cycles
 SCF Done:  E(RB3LYP) =  -611.007187982     A.U. after   11 cycles
 SCF Done:  E(RB3LYP) =  -611.007196886     A.U. after   10 cycles
 SCF Done:  E(RB3LYP) =  -611.007198596     A.U. after   10 cycles
 SCF Done:  E(RB3LYP) =  -611.007199020     A.U. after    9 cycles
 SCF Done:  E(RB3LYP) =  -611.007199304     A.U. after    9 cycles
 SCF Done:  E(RB3LYP) =  -611.007199622     A.U. after    9 cycles
 SCF Done:  E(RB3LYP) =  -611.007199749     A.U. after    8 cycles
 Optimization completed.
    -- Stationary point found.
 Normal termination of Gaussian 09 at Sun Jun 16 15:57:13 2024.

 ----------------------------------------------------------------------
 #N Geom=AllCheck Guess=TCheck SCRF=Check GenChk RB3LYP/6-31+G(d,p) Fre
 q
 ----------------------------------------------------------------------

 Structure from the checkpoint file:  "b3lypTHAPyang.chk"
 ----------
 [No Title]
 ----------
 Charge =  1 Multiplicity = 1

                         Standard orientation:
 ---------------------------------------------------------------------
 Center     Atomic      Atomic             Coordinates (Angstroms)
 Number     Number       Type             X           Y           Z
 ---------------------------------------------------------------------
      1          6           0       -1.548063   -1.266650   -0.000293
      2          6           0       -2.283760   -0.076630   -0.000828
      3          6           0       -1.635788    1.174409    0.000039
      4          6           0       -0.259863    1.211598    0.001049
      5          6           0        0.558355    0.024956    0.000889
      6          6           0       -0.165312   -1.225029    0.000962
      7          8           0        0.557727   -2.356696    0.002059
      8          6           0        1.981100    0.082889   -0.000681
      9          6           0        2.909153   -1.081501   -0.000963
     10          8           0        2.627673    1.217569   -0.002648
     11          8           0        0.403142    2.401573    0.003033
     12          8           0       -3.612734   -0.198901   -0.001814
     13          1           0       -2.081480   -2.210958   -0.000606
     14          1           0       -2.211797    2.094923    0.000383
     15          1           0       -0.014948   -3.138617    0.001867
     16          1           0        2.735480   -1.712636    0.874829
     17          1           0        2.733271   -1.714018   -0.875326
     18          1           0        3.933226   -0.710042   -0.002591
     19          1           0        2.022480    1.994178   -0.002403
     20          1           0       -0.188469    3.168702    0.000021
     21          1           0       -4.069150    0.655847   -0.002256
 ---------------------------------------------------------------------

 SCF Done:  E(RB3LYP) =  -611.007199749     A.U. after    1 cycles

 The electronic state is 1-A.
 Alpha  occ. eigenvalues --  -19.39081 -19.38161 -19.36595 -19.36366 -10.48091
 Alpha  occ. eigenvalues --  -10.46031 -10.45256 -10.45018 -10.38917 -10.36866
 Alpha  occ. eigenvalues --  -10.35651 -10.33936  -1.28466  -1.26052  -1.25274
 Alpha  occ. eigenvalues --   -1.24872  -1.03599  -0.96648  -0.92875  -0.91300
 Alpha  occ. eigenvalues --   -0.83754  -0.82078  -0.79614  -0.76625  -0.74283
 Alpha  occ. eigenvalues --   -0.72131  -0.68454  -0.66250  -0.63518  -0.62378
 Alpha  occ. eigenvalues --   -0.61465  -0.61095  -0.60092  -0.58642  -0.57732
 Alpha  occ. eigenvalues --   -0.56967  -0.56131  -0.54170  -0.53906  -0.52393
 Alpha  occ. eigenvalues --   -0.51841  -0.47768  -0.41628  -0.40497
 Alpha virt. eigenvalues --   -0.24815  -0.16807  -0.15008  -0.14038  -0.13068
 Alpha virt. eigenvalues --   -0.12705  -0.11027  -0.08543  -0.07979  -0.07666
 Alpha virt. eigenvalues --   -0.07529  -0.05789  -0.04782  -0.04531  -0.04000

 Mulliken charges:
               1
     1  C    1.022812
     2  C   -0.810209
     3  C    0.760070
     4  C   -0.963237
     5  C    2.168942
     6  C   -2.238775
     7  O   -0.518717
     8  C    0.623030
     9  C   -0.201118
    10  O   -0.385351
    11  O   -0.609965
    12  O   -0.463578
    13  H    0.158678
    14  H    0.135675
    15  H    0.413764
    16  H    0.214832
    17  H    0.214777
    18  H    0.202593
    19  H    0.461200
    20  H    0.428639
    21  H    0.385941
 Sum of Mulliken charges =   1.00000

 Dipole moment (field-independent basis, Debye):
    X=             -1.7001    Y=              1.6712    Z=             -0.0070  Tot=              2.3839
 Quadrupole moment (field-independent basis, Debye-Ang):
   XX=            -43.3726   YY=            -36.8427   ZZ=            -69.6796
   XY=             -8.9055   XZ=              0.0007   YZ=             -0.0218

  Exact polarizability: 163.806  -2.132 116.519   0.009  -0.010  55.762
 Approx polarizability: 271.212   4.201 185.392   0.038  -0.019  84.203

                      1                      2                      3
                      A                      A                      A
 Frequencies --     58.6476                91.9613               193.0252
 Red. masses --      4.7256                 5.0735                 3.4907
 Frc consts  --      0.0096                 0.0253                 0.0766
 IR Inten    --      0.4920                 0.1312                 2.8984

                      4                      5                      6
                      A                      A                      A
 Frequencies --    210.0001               232.3335               266.9942
 Red. masses --      4.3694                 1.2750                 4.7725
 Frc consts  --      0.1135                 0.0405                 0.2004
 IR Inten    --      3.5678                 0.5356                 1.2495

                      7                      8                      9
                      A                      A                      A
 Frequencies --    280.4491               345.4983               349.1018
 Red. masses --      2.8689                 1.2197                 5.5194
 Frc consts  --      0.1329                 0.0858                 0.3963
 IR Inten    --     39.2332                95.6349                12.7531

                     10                     11                     12
                      A                      A                      A
 Frequencies --    372.6832               397.5134               425.9481
 Red. masses --      4.9386                 4.9595                 5.6745
 Frc consts  --      0.4041                 0.4617                 0.6066
 IR Inten    --      4.8725                 5.4030                 5.1513

                     13                     14                     15
                      A                      A                      A
 Frequencies --    452.8802               470.5118               527.3862
 Red. masses --      1.1278                 1.1194                 7.0327
 Frc consts  --      0.1363                 0.1460                 1.1525
 IR Inten    --     32.3100               183.0466                 4.9355

                     16                     17                     18
                      A                      A                      A
 Frequencies --    544.1015               569.1549               609.2151
 Red. masses --      4.0059                 2.7762                 7.9182
 Frc consts  --      0.6987                 0.5299                 1.7315
 IR Inten    --      8.9316                 0.3637                 0.4248

                     19                     20                     21
                      A                      A                      A
 Frequencies --    622.0697               644.6804               650.1735
 Red. masses --      3.3792                 3.4737                 2.9602
 Frc consts  --      0.7704                 0.8506                 0.7373
 IR Inten    --     10.7816                30.1927                21.5326

                     22                     23                     24
                      A                      A                      A
 Frequencies --    716.9293               728.9760               805.7870
 Red. masses --      4.2932                 5.0991                 1.6498
 Frc consts  --      1.3001                 1.5965                 0.6311
 IR Inten    --      5.4787                 3.3744                46.0302

                     25                     26                     27
                      A                      A                      A
 Frequencies --    829.5252               839.4694               987.0213
 Red. masses --      1.2490                 1.5479                 2.2116
 Frc consts  --      0.5064                 0.6427                 1.2694
 IR Inten    --    126.2299                17.9377                36.8101

                     28                     29                     30
                      A                      A                      A
 Frequencies --   1037.7005              1052.5519              1082.6520
 Red. masses --      3.3170                 1.6607                 2.9025
 Frc consts  --      2.1044                 1.0840                 2.0045
 IR Inten    --      0.3394                 0.4653               105.8148

                     31                     32                     33
                      A                      A                      A
 Frequencies --   1092.3968              1181.2045              1193.4375
 Red. masses --      2.5075                 1.3006                 1.2195
 Frc consts  --      1.7630                 1.0691                 1.0233
 IR Inten    --     50.3251               108.1269                75.0510

                     34                     35                     36
                      A                      A                      A
 Frequencies --   1219.9319              1244.9741              1291.6916
 Red. masses --      1.5698                 2.2929                 2.1090
 Frc consts  --      1.3765                 2.0939                 2.0732
 IR Inten    --    121.4733                42.0506                68.4191

                     37                     38                     39
                      A                      A                      A
 Frequencies --   1318.5594              1389.3482              1400.2949
 Red. masses --      2.0651                 2.7284                 1.2052
 Frc consts  --      2.1154                 3.1030                 1.3924
 IR Inten    --    165.1327               334.7550                25.5184

                     40                     41                     42
                      A                      A                      A
 Frequencies --   1434.0823              1440.1221              1466.2077
 Red. masses --      1.9762                 3.6712                 1.0438
 Frc consts  --      2.3946                 4.4860                 1.3221
 IR Inten    --     21.1884                40.8530                17.8705

                     43                     44                     45
                      A                      A                      A
 Frequencies --   1485.4126              1520.8858              1549.0813
 Red. masses --      2.1030                 2.4493                 4.2656
 Frc consts  --      2.7339                 3.3380                 6.0309
 IR Inten    --    352.9433               272.4251               211.6345

                     46                     47                     48
                      A                      A                      A
 Frequencies --   1577.8713              1612.1047              1687.9602
 Red. masses --      3.3730                 5.6220                 6.8670
 Frc consts  --      4.9477                 8.6085                11.5276
 IR Inten    --    217.0669               190.2793               821.6836

                     49                     50                     51
                      A                      A                      A
 Frequencies --   3072.3819              3136.4400              3184.0870
 Red. masses --      1.0362                 1.0984                 1.1060
 Frc consts  --      5.7632                 6.3663                 6.6063
 IR Inten    --     13.3369                 1.0974                 5.7133

                     52                     53                     54
                      A                      A                      A
 Frequencies --   3193.7713              3216.1473              3476.6269
 Red. masses --      1.0930                 1.0932                 1.0667
 Frc consts  --      6.5688                 6.6625                 7.5966
 IR Inten    --      0.0411                 2.7908               271.9304

                     55                     56                     57
                      A                      A                      A
 Frequencies --   3793.2247              3798.6640              3802.3917
 Red. masses --      1.0666                 1.0669                 1.0671
 Frc consts  --      9.0418                 9.0705                 9.0900
 IR Inten    --    174.7090               120.5791               223.0018

 - Thermochemistry -
 -------------------
 Temperature   298.150 Kelvin.  Pressure   1.00000 Atm.
 Atom     1 has atomic number  6 and mass  12.00000

 Molecular mass:   169.05008 amu.
 Principal axes and moments of inertia in atomic units:
                           1         2         3
     Eigenvalues --  1187.258822379.937223556.16883
           X            0.99943  -0.03385  -0.00001
           Y            0.03385   0.99943  -0.00002
           Z            0.00001   0.00002   1.00000
 This molecule is an asymmetric top.
 Rotational symmetry number  1.
 Warning -- assumption of classical behavior for rotation
           may cause significant error
 Rotational temperatures (Kelvin)      0.07295     0.03639     0.02436
 Rotational constants (GHZ):           1.52009     0.75831     0.50750
 Zero-point vibrational energy     431697.8 (Joules/Mol)
                                  103.17826 (Kcal/Mol)
 Warning -- explicit consideration of  18 degrees of freedom as
           vibrations may cause significant error
 Vibrational temperatures:     84.38   132.31   277.72   302.14   334.28
          (Kelvin)            384.14   403.50   497.09   502.28   536.21
                              571.93   612.84   651.59   676.96   758.79
                              782.84   818.89   876.52   895.02   927.55
                              935.45  1031.50  1048.83  1159.35  1193.50
                             1207.81  1420.10  1493.02  1514.39  1557.69
                             1571.71  1699.49  1717.09  1755.21  1791.24
                             1858.45  1897.11  1998.96  2014.71  2063.32
                             2072.01  2109.54  2137.17  2188.21  2228.78
                             2270.20  2319.46  2428.60  4420.47  4512.63
                             4581.19  4595.12  4627.31  5002.08  5457.60
                             5465.42  5470.79

 Zero-point correction=                           0.164425 (Hartree/Particle)
 Thermal correction to Energy=                    0.175401
 Thermal correction to Enthalpy=                  0.176345
 Thermal correction to Gibbs Free Energy=         0.128241
 Sum of electronic and zero-point Energies=           -610.842775
 Sum of electronic and thermal Energies=              -610.831799
 Sum of electronic and thermal Enthalpies=            -610.830855
 Sum of electronic and thermal Free Energies=         -610.878959

                     E (Thermal)             CV                S
                      KCal/Mol        Cal/Mol-Kelvin    Cal/Mol-Kelvin
 Total                  110.066             43.323            101.243
 Electronic               0.000              0.000              0.000
 Translational            0.889              2.981             41.283
 Rotational               0.889              2.981             30.686
 Vibrational            108.288             37.362             29.274
 Vibration     1          0.596              1.974              4.502
 Vibration     2          0.602              1.955              3.618
 Vibration     3          0.635              1.850              2.199
 Vibration     4          0.642              1.826              2.044
 Vibration     5          0.653              1.792              1.861
 Vibration     6          0.672              1.734              1.616
 Vibration     7          0.680              1.710              1.531
 Vibration     8          0.724              1.584              1.187
 Vibration     9          0.726              1.577              1.170
 Vibration    10          0.744              1.528              1.069
 Vibration    11          0.764              1.475              0.972
 Vibration    12          0.788              1.414              0.872
 Vibration    13          0.811              1.355              0.787
 Vibration    14          0.828              1.315              0.736
 Vibration    15          0.882              1.189              0.593
 Vibration    16          0.899              1.153              0.557
 Vibration    17          0.925              1.098              0.506
 Vibration    18          0.968              1.012              0.434

 Normal termination of Gaussian 09 at Sun Jun 16 15:59:20 2024.
