 Gaussian 09, Revision E.01,
 Gaussian 09:  ES64L-G09RevE.01 30-Nov-2015

 -------------------------------------
 # opt freq b3lyp/6-31+g(d,p) em=gd3bj
 -------------------------------------

 ----------
 [No Title]
 ----------
 Symbolic Z-matrix:
 Charge =  0 Multiplicity = 1

 SCF Done:  E(RB3LYP) =  -610.601093350     A.U. after   16 cycles
 SCF Done:  E(RB3LYP) =  -610.640141784     A.U. after   14 cycles
 SCF Done:  E(RB3LYP) =  -610.645086643     A.U. after   13 cycles
 SCF Done:  E(RB3LYP) =  -610.636141363     A.U. after   14 cycles
 SCF Done:  E(RB3LYP) =  -610.648071067     A.U. after   12 cycles
 SCF Done:  E(RB3LYP) =  -610.648645894     A.U. after   13 cycles
 SCF Done:  E(RB3LYP) =  -610.649284073     A.U. after   13 cycles
 SCF Done:  E(RB3LYP) =  -610.649177776     A.U. after   13 cycles
 SCF Done:  E(RB3LYP) =  -610.649320989     A.U. after   13 cycles
 SCF Done:  E(RB3LYP) =  -610.649339133     A.U. after   10 cycles
 SCF Done:  E(RB3LYP) =  -610.650619730     A.U. after   11 cycles
 SCF Done:  E(RB3LYP) =  -610.651776373     A.U. after   14 cycles
 SCF Done:  E(RB3LYP) =  -610.652375052     A.U. after   12 cycles
 SCF Done:  E(RB3LYP) =  -610.652389577     A.U. after   14 cycles
 SCF Done:  E(RB3LYP) =  -610.652616129     A.U. after   13 cycles
 SCF Done:  E(RB3LYP) =  -610.652759159     A.U. after   11 cycles
 SCF Done:  E(RB3LYP) =  -610.652799867     A.U. after   11 cycles
 SCF Done:  E(RB3LYP) =  -610.652804634     A.U. after   11 cycles
 SCF Done:  E(RB3LYP) =  -610.652805095     A.U. after   10 cycles
 Optimization completed.
    -- Stationary point found.
 Normal termination of Gaussian 09 at Sun Jun 16 15:40:16 2024.

 ----------------------------------------------------------------------
 #N Geom=AllCheck Guess=TCheck SCRF=Check GenChk RB3LYP/6-31+G(d,p) Fre
 q
 ----------------------------------------------------------------------

 Structure from the checkpoint file:  "b3lypTHAP.chk"
 ----------
 [No Title]
 ----------
 Charge =  0 Multiplicity = 1

                         Standard orientation:
 ---------------------------------------------------------------------
 Center     Atomic      Atomic             Coordinates (Angstroms)
 Number     Number       Type             X           Y           Z
 ---------------------------------------------------------------------
      1          6           0       -1.527361   -1.250486   -0.000029
      2          6           0       -2.261204   -0.056870   -0.000066
      3          6           0       -1.626164    1.178953    0.000089
      4          6           0       -0.228245    1.231227    0.000115
      5          6           0        0.568429    0.036812    0.000136
      6          6           0       -0.140911   -1.196467    0.000088
      7          8           0        0.579870   -2.356472    0.000190
      8          6           0        2.027800    0.167227    0.000030
      9          6           0        2.954839   -1.022960   -0.000052
     10          8           0        2.551302    1.303298   -0.000265
     11          8           0        0.337199    2.439391    0.000125
     12          8           0       -3.616433   -0.180094   -0.000088
     13          1           0       -2.055071   -2.198681    0.000127
     14          1           0       -2.180588    2.111538    0.000166
     15          1           0       -0.027266   -3.108292   -0.000806
     16          1           0        2.780635   -1.653523   -0.875892
     17          1           0        3.978807   -0.648024   -0.000324
     18          1           0        2.781208   -1.653513    0.875899
     19          1           0        1.331034    2.281909    0.000019
     20          1           0       -4.027363    0.694990   -0.000754
 ---------------------------------------------------------------------

 SCF Done:  E(RB3LYP) =  -610.652805095     A.U. after    1 cycles

 The electronic state is 1-A.
 Alpha  occ. eigenvalues --  -19.21570 -19.21355 -19.17730 -19.15630 -10.29486
 Alpha  occ. eigenvalues --  -10.28885 -10.28484 -10.28042 -10.21248 -10.20355
 Alpha  occ. eigenvalues --  -10.19830 -10.19019  -1.09703  -1.09256  -1.07810
 Alpha  occ. eigenvalues --   -1.04132  -0.86753  -0.78723  -0.76165  -0.73894
 Alpha  occ. eigenvalues --   -0.66549  -0.64647  -0.60510  -0.58482  -0.52985
 Alpha  occ. eigenvalues --   -0.52616  -0.51162  -0.48732  -0.46466  -0.45290
 Alpha  occ. eigenvalues --   -0.44029  -0.43662  -0.42398  -0.41949  -0.41596
 Alpha  occ. eigenvalues --   -0.40649  -0.39084  -0.37460  -0.37237  -0.36489
 Alpha  occ. eigenvalues --   -0.30967  -0.27076  -0.24928  -0.23684
 Alpha virt. eigenvalues --   -0.06213  -0.01708  -0.01051  -0.00969   0.01609
 Alpha virt. eigenvalues --    0.02249   0.03239   0.03713   0.04332   0.04598
 Alpha virt. eigenvalues --    0.05984   0.06434   0.07289   0.07663   0.08820

 Mulliken charges:
               1
     1  C    0.905201
     2  C   -0.654312
     3  C    0.925938
     4  C   -1.155543
     5  C    2.155603
     6  C   -2.180225
     7  O   -0.545062
     8  C    0.649327
     9  C   -0.477204
    10  O   -0.500623
    11  O   -0.554135
    12  O   -0.521998
    13  H    0.115502
    14  H    0.121484
    15  H    0.383729
    16  H    0.178470
    17  H    0.169900
    18  H    0.178486
    19  H    0.441202
    20  H    0.364260
 Sum of Mulliken charges =  -0.00000

 Dipole moment (field-independent basis, Debye):
    X=             -2.3968    Y=             -3.1029    Z=             -0.0022  Tot=              3.9208
 Quadrupole moment (field-independent basis, Debye-Ang):
   XX=            -67.5868   YY=            -66.3358   ZZ=            -71.9101
   XY=             -8.8757   XZ=              0.0061   YZ=              0.0046

  Exact polarizability: 155.375   2.059 123.071   0.003   0.001  61.207
 Approx polarizability: 234.319  15.638 204.466   0.006  -0.000  91.934

                      1                      2                      3
                      A                      A                      A
 Frequencies --     60.2063               108.6448               198.4169
 Red. masses --      3.8723                 9.6061                 2.7289
 Frc consts  --      0.0083                 0.0668                 0.0633
 IR Inten    --      1.0897                 0.3341                 3.5920

                      4                      5                      6
                      A                      A                      A
 Frequencies --    222.4005               227.2443               266.1203
 Red. masses --      2.1029                 2.0933                 4.5823
 Frc consts  --      0.0613                 0.0637                 0.1912
 IR Inten    --      0.1001                 1.0511                11.3639

                      7                      8                      9
                      A                      A                      A
 Frequencies --    284.9462               339.9225               362.8115
 Red. masses --      4.3745                 5.8139                 5.1524
 Frc consts  --      0.2093                 0.3958                 0.3996
 IR Inten    --      2.3992                 8.5470                 2.9854

                     10                     11                     12
                      A                      A                      A
 Frequencies --    380.1933               383.6155               397.6787
 Red. masses --      4.9423                 1.1672                 1.1173
 Frc consts  --      0.4209                 0.1012                 0.1041
 IR Inten    --      6.3788                 4.7415               197.8218

                     13                     14                     15
                      A                      A                      A
 Frequencies --    436.0602               531.7154               576.7599
 Red. masses --      6.4790                 6.7750                 5.9658
 Frc consts  --      0.7259                 1.1285                 1.1692
 IR Inten    --      4.1787                 9.3853                22.5910

                     16                     17                     18
                      A                      A                      A
 Frequencies --    580.5796               612.7887               623.4407
 Red. masses --      3.0134                 7.6280                 3.2018
 Frc consts  --      0.5984                 1.6876                 0.7332
 IR Inten    --      0.1513                 6.7415                 1.2053

                     19                     20                     21
                      A                      A                      A
 Frequencies --    640.2753               646.1588               714.4721
 Red. masses --      2.8312                 4.0032                 4.0643
 Frc consts  --      0.6838                 0.9848                 1.2224
 IR Inten    --     12.2502                16.4371                11.9818

                     22                     23                     24
                      A                      A                      A
 Frequencies --    728.0812               793.6596               809.1743
 Red. masses --      5.1957                 1.7018                 1.6631
 Frc consts  --      1.6227                 0.6316                 0.6416
 IR Inten    --      0.0702                41.0451                47.2230

                     25                     26                     27
                      A                      A                      A
 Frequencies --    962.7169               978.1595              1034.9835
 Red. masses --      1.0626                 2.2438                 3.4275
 Frc consts  --      0.5803                 1.2649                 2.1632
 IR Inten    --     84.7152                45.3185                13.2197

                     28                     29                     30
                      A                      A                      A
 Frequencies --   1049.1392              1086.5774              1096.6265
 Red. masses --      1.7786                 2.6664                 4.2547
 Frc consts  --      1.1535                 1.8548                 3.0146
 IR Inten    --      2.2010                67.9023                53.9700

                     31                     32                     33
                      A                      A                      A
 Frequencies --   1184.1623              1205.3058              1228.3365
 Red. masses --      1.3106                 1.4653                 1.8351
 Frc consts  --      1.0828                 1.2542                 1.6314
 IR Inten    --    178.2568                20.3214               167.2359

                     34                     35                     36
                      A                      A                      A
 Frequencies --   1274.5075              1314.1218              1344.3255
 Red. masses --      1.6861                 3.3341                 3.5304
 Frc consts  --      1.6137                 3.3923                 3.7590
 IR Inten    --    226.4918                96.8993               156.6481

                     37                     38                     39
                      A                      A                      A
 Frequencies --   1404.5209              1415.5545              1451.6049
 Red. masses --      1.5581                 3.2857                 1.5903
 Frc consts  --      1.8110                 3.8791                 1.9743
 IR Inten    --     65.3724                 4.5025                50.3186

                     40                     41                     42
                      A                      A                      A
 Frequencies --   1469.1804              1479.2738              1494.2836
 Red. masses --      1.8712                 1.0463                 3.0916
 Frc consts  --      2.3797                 1.3490                 4.0672
 IR Inten    --      2.0753                11.7732               197.0741

                     43                     44                     45
                      A                      A                      A
 Frequencies --   1563.1603              1642.8603              1658.0568
 Red. masses --      2.5432                 4.1939                 8.0970
 Frc consts  --      3.6614                 6.6691                13.1152
 IR Inten    --    106.8838               150.6460               288.9957

                     46                     47                     48
                      A                      A                      A
 Frequencies --   1686.9457              3038.9597              3065.9864
 Red. masses --      4.3827                 1.0726                 1.0349
 Frc consts  --      7.3484                 5.8364                 5.7319
 IR Inten    --    691.1800               511.7343                 0.2350

                     49                     50                     51
                      A                      A                      A
 Frequencies --   3134.9475              3167.0230              3199.9151
 Red. masses --      1.0992                 1.1058                 1.0917
 Frc consts  --      6.3648                 6.5350                 6.5864
 IR Inten    --      4.1460                15.2463                 3.4566

                     52                     53                     54
                      A                      A                      A
 Frequencies --   3204.6773              3822.7788              3824.6483
 Red. masses --      1.0919                 1.0661                 1.0661
 Frc consts  --      6.6072                 9.1795                 9.1886
 IR Inten    --      4.0215                92.0268                66.4089

 - Thermochemistry -
 -------------------
 Temperature   298.150 Kelvin.  Pressure   1.00000 Atm.
 Atom     1 has atomic number  6 and mass  12.00000

 Molecular mass:   168.04226 amu.
 Principal axes and moments of inertia in atomic units:
                           1         2         3
     Eigenvalues --  1168.693712360.722123518.37127
           X            0.99941  -0.03445   0.00000
           Y            0.03445   0.99941   0.00001
           Z           -0.00000  -0.00001   1.00000
 This molecule is an asymmetric top.
 Rotational symmetry number  1.
 Warning -- assumption of classical behavior for rotation
           may cause significant error
 Rotational temperatures (Kelvin)      0.07411     0.03669     0.02462
 Rotational constants (GHZ):           1.54424     0.76449     0.51295
 Zero-point vibrational energy     397212.3 (Joules/Mol)
                                   94.93601 (Kcal/Mol)
 Warning -- explicit consideration of  17 degrees of freedom as
           vibrations may cause significant error
 Vibrational temperatures:     86.62   156.32   285.48   319.98   326.95
          (Kelvin)            382.89   409.97   489.07   522.00   547.01
                              551.94   572.17   627.39   765.02   829.83
                              835.32   881.67   896.99   921.21   929.68
                             1027.96  1047.55  1141.90  1164.22  1385.13
                             1407.35  1489.11  1509.48  1563.34  1577.80
                             1703.74  1734.16  1767.30  1833.73  1890.73
                             1934.18  2020.79  2036.66  2088.53  2113.82
                             2128.34  2149.94  2249.04  2363.71  2385.57
                             2427.14  4372.38  4411.27  4510.48  4556.63
                             4603.96  4610.81  5500.12  5502.81

 Zero-point correction=                           0.151290 (Hartree/Particle)
 Thermal correction to Energy=                    0.161942
 Thermal correction to Enthalpy=                  0.162886
 Thermal correction to Gibbs Free Energy=         0.115412
 Sum of electronic and zero-point Energies=           -610.501515
 Sum of electronic and thermal Energies=              -610.490863
 Sum of electronic and thermal Enthalpies=            -610.489919
 Sum of electronic and thermal Free Energies=         -610.537393

                     E (Thermal)             CV                S
                      KCal/Mol        Cal/Mol-Kelvin    Cal/Mol-Kelvin
 Total                  101.620             41.689             99.918
 Electronic               0.000              0.000              0.000
 Translational            0.889              2.981             41.265
 Rotational               0.889              2.981             30.652
 Vibrational             99.843             35.728             28.001
 Vibration     1          0.597              1.973              4.450
 Vibration     2          0.606              1.942              3.293
 Vibration     3          0.637              1.842              2.148
 Vibration     4          0.648              1.807              1.939
 Vibration     5          0.651              1.799              1.901
 Vibration     6          0.672              1.735              1.621
 Vibration     7          0.683              1.702              1.504
 Vibration     8          0.720              1.596              1.213
 Vibration     9          0.737              1.549              1.110
 Vibration    10          0.750              1.512              1.038
 Vibration    11          0.753              1.505              1.025
 Vibration    12          0.764              1.475              0.971
 Vibration    13          0.797              1.392              0.839
 Vibration    14          0.887              1.180              0.583
 Vibration    15          0.933              1.082              0.491
 Vibration    16          0.937              1.073              0.484
 Vibration    17          0.972              1.005              0.428

 Optimization completed.
    -- Stationary point found.
 Normal termination of Gaussian 09 at Sun Jun 16 15:42:11 2024.
