 Gaussian 09, Revision E.01,
 Gaussian 09:  ES64L-G09RevE.01 30-Nov-2015

 -------------------------------------------------------
 # opt freq b3pw91/6-31+g(d,p) EmpiricalDispersion=GD3BJ
 -------------------------------------------------------

 ----------
 [No Title]
 ----------
 Symbolic Z-matrix:
 Charge =  0 Multiplicity = 1

 SCF Done:  E(RB3PW91) =  -610.417192570     A.U. after   15 cycles
 SCF Done:  E(RB3PW91) =  -610.417201801     A.U. after   11 cycles
 SCF Done:  E(RB3PW91) =  -610.417205747     A.U. after   11 cycles
 SCF Done:  E(RB3PW91) =  -610.417218260     A.U. after   10 cycles
 SCF Done:  E(RB3PW91) =  -610.417218600     A.U. after    9 cycles
 SCF Done:  E(RB3PW91) =  -610.417218826     A.U. after    8 cycles
 Optimization completed.
    -- Stationary point found.
 Normal termination of Gaussian 09 at Thu Dec 19 12:10:11 2024.

 ----------------------------------------------------------------------
 #N Geom=AllCheck Guess=TCheck SCRF=Check GenChk RB3PW91/6-31+G(d,p) Fr
 eq
 ----------------------------------------------------------------------

 Structure from the checkpoint file:  "B3PW91D3BJTHAP.chk"
 ----------
 [No Title]
 ----------
 Charge =  0 Multiplicity = 1

                         Standard orientation:
 ---------------------------------------------------------------------
 Center     Atomic      Atomic             Coordinates (Angstroms)
 Number     Number       Type             X           Y           Z
 ---------------------------------------------------------------------
      1          6           0       -1.526465    1.246937    0.000072
      2          6           0       -2.257265    0.053162    0.000006
      3          6           0       -1.620845   -1.180035   -0.000038
      4          6           0       -0.224535   -1.229717   -0.000015
      5          6           0        0.566473   -0.034338    0.000033
      6          6           0       -0.141839    1.196412    0.000083
      7          8           0        0.574936    2.351102    0.000126
      8          6           0        2.020641   -0.164922   -0.000003
      9          6           0        2.944118    1.020784    0.000010
     10          8           0        2.542413   -1.300167   -0.000262
     11          8           0        0.347178   -2.427215   -0.000006
     12          8           0       -3.606494    0.173337   -0.000005
     13          1           0       -2.057687    2.193626    0.000107
     14          1           0       -2.172945   -2.114445   -0.000075
     15          1           0       -0.034424    3.098730    0.000159
     16          1           0        2.769571    1.651138    0.875858
     17          1           0        3.968425    0.646826   -0.000131
     18          1           0        2.769391    1.651302   -0.875685
     19          1           0        1.342580   -2.250683    0.000109
     20          1           0       -4.010873   -0.702644   -0.000051
 ---------------------------------------------------------------------

 SCF Done:  E(RB3PW91) =  -610.417218826     A.U. after    2 cycles

 The electronic state is 1-A.
 Alpha  occ. eigenvalues --  -19.20558 -19.20293 -19.16513 -19.14651 -10.28102
 Alpha  occ. eigenvalues --  -10.27499 -10.27081 -10.26586 -10.19833 -10.18931
 Alpha  occ. eigenvalues --  -10.18377 -10.17590  -1.10349  -1.09877  -1.08394
 Alpha  occ. eigenvalues --   -1.04590  -0.87119  -0.79096  -0.76386  -0.74242
 Alpha  occ. eigenvalues --   -0.66871  -0.64890  -0.60777  -0.58702  -0.53272
 Alpha  occ. eigenvalues --   -0.52781  -0.51338  -0.48812  -0.46772  -0.45360
 Alpha  occ. eigenvalues --   -0.44196  -0.43905  -0.42470  -0.42000  -0.41866
 Alpha  occ. eigenvalues --   -0.40835  -0.39042  -0.37419  -0.37175  -0.36631
 Alpha  occ. eigenvalues --   -0.31018  -0.27077  -0.25000  -0.23697
 Alpha virt. eigenvalues --   -0.06204  -0.00756  -0.00490   0.00163   0.02479
 Alpha virt. eigenvalues --    0.02743   0.04411   0.04784   0.05270   0.05839
 Alpha virt. eigenvalues --    0.07087   0.07524   0.08456   0.08682   0.10035

 Mulliken charges:
               1
     1  C    1.169924
     2  C   -0.934954
     3  C    1.182527
     4  C   -1.417576
     5  C    2.470793
     6  C   -2.566617
     7  O   -0.512768
     8  C    0.501273
     9  C   -0.452402
    10  O   -0.476678
    11  O   -0.528587
    12  O   -0.497550
    13  H    0.140222
    14  H    0.146219
    15  H    0.387444
    16  H    0.193930
    17  H    0.189231
    18  H    0.193939
    19  H    0.443248
    20  H    0.368384
 Sum of Mulliken charges =  -0.00000

 Dipole moment (field-independent basis, Debye):
    X=             -2.3682    Y=              3.1420    Z=              0.0006  Tot=              3.9345
 Quadrupole moment (field-independent basis, Debye-Ang):
   XX=            -66.2232   YY=            -65.2143   ZZ=            -71.4228
   XY=              8.8646   XZ=              0.0018   YZ=             -0.0007

  Exact polarizability: 153.678  -2.020 121.327  -0.001   0.003  59.857
 Approx polarizability: 232.665 -15.642 201.864  -0.003   0.007  88.546

                      1                      2                      3
                      A                      A                      A
 Frequencies --     59.8945               110.8925               197.1694
 Red. masses --      3.8855                 9.2882                 2.2387
 Frc consts  --      0.0082                 0.0673                 0.0513
 IR Inten    --      1.1141                 0.2937                 3.9534

                      4                      5                      6
                      A                      A                      A
 Frequencies --    220.4885               225.5742               266.1060
 Red. masses --      1.7904                 3.1864                 4.4915
 Frc consts  --      0.0513                 0.0955                 0.1874
 IR Inten    --      0.0721                 1.1795                11.6240

                      7                      8                      9
                      A                      A                      A
 Frequencies --    282.3236               339.8581               363.5580
 Red. masses --      4.4390                 5.7652                 5.0892
 Frc consts  --      0.2085                 0.3923                 0.3963
 IR Inten    --      2.4932                 9.0819                 2.4757

                     10                     11                     12
                      A                      A                      A
 Frequencies --    382.2504               389.8676               406.4622
 Red. masses --      4.9458                 1.1648                 1.1149
 Frc consts  --      0.4258                 0.1043                 0.1085
 IR Inten    --      6.4050                14.1922               187.1853

                     13                     14                     15
                      A                      A                      A
 Frequencies --    439.2821               529.0465               578.0530
 Red. masses --      6.4781                 6.7383                 5.8269
 Frc consts  --      0.7365                 1.1112                 1.1472
 IR Inten    --      4.6033                 8.6068                23.0809

                     16                     17                     18
                      A                      A                      A
 Frequencies --    580.1330               617.0725               625.9326
 Red. masses --      2.9407                 7.7685                 3.1117
 Frc consts  --      0.5831                 1.7429                 0.7183
 IR Inten    --      0.1677                 5.2634                 1.4162

                     19                     20                     21
                      A                      A                      A
 Frequencies --    642.7722               646.7244               719.0566
 Red. masses --      2.7933                 4.0043                 3.9627
 Frc consts  --      0.6800                 0.9868                 1.2072
 IR Inten    --     12.7435                18.0209                12.8043

                     22                     23                     24
                      A                      A                      A
 Frequencies --    725.1492               790.4241               805.1942
 Red. masses --      5.4036                 1.7282                 1.6670
 Frc consts  --      1.6741                 0.6361                 0.6368
 IR Inten    --      0.0247                51.0841                39.3370

                     25                     26                     27
                      A                      A                      A
 Frequencies --    980.3515               995.9853              1038.5995
 Red. masses --      2.0911                 1.0650                 3.2367
 Frc consts  --      1.1841                 0.6225                 2.0571
 IR Inten    --     38.9532                85.2891                11.7554

                     28                     29                     30
                      A                      A                      A
 Frequencies --   1043.0560              1089.8601              1105.8492
 Red. masses --      1.7951                 2.5222                 4.2419
 Frc consts  --      1.1507                 1.7651                 3.0563
 IR Inten    --      1.6028                37.9384                71.4924

                     31                     32                     33
                      A                      A                      A
 Frequencies --   1185.3465              1209.3040              1238.7925
 Red. masses --      1.2640                 1.4142                 2.0555
 Frc consts  --      1.0464                 1.2185                 1.8585
 IR Inten    --    159.6528                23.8429               178.3562

                     34                     35                     36
                      A                      A                      A
 Frequencies --   1280.6664              1327.7259              1358.2638
 Red. masses --      1.6703                 2.9813                 2.6802
 Frc consts  --      1.6141                 3.0965                 2.9133
 IR Inten    --    208.5989               104.3176               113.6390

                     37                     38                     39
                      A                      A                      A
 Frequencies --   1403.8324              1432.1570              1448.4616
 Red. masses --      1.7130                 4.3356                 1.1830
 Frc consts  --      1.9890                 5.2394                 1.4623
 IR Inten    --    130.1205                 0.9278                30.9454

                     40                     41                     42
                      A                      A                      A
 Frequencies --   1471.7531              1484.5221              1508.7453
 Red. masses --      1.0454                 3.1988                 3.7285
 Frc consts  --      1.3342                 4.1535                 5.0005
 IR Inten    --     13.0545                 7.3736               195.0592

                     43                     44                     45
                      A                      A                      A
 Frequencies --   1575.3846              1656.8547              1673.9459
 Red. masses --      2.6290                 4.1256                 8.3832
 Frc consts  --      3.8443                 6.6728                13.8402
 IR Inten    --    108.8898               169.6208               296.9960

                     46                     47                     48
                      A                      A                      A
 Frequencies --   1703.2317              2954.9540              3075.1904
 Red. masses --      4.4902                 1.0753                 1.0354
 Frc consts  --      7.6747                 5.5319                 5.7688
 IR Inten    --    719.0588               560.0005                 1.0005

                     49                     50                     51
                      A                      A                      A
 Frequencies --   3153.8960              3185.8145              3211.6827
 Red. masses --      1.0992                 1.1058                 1.0921
 Frc consts  --      6.4423                 6.6128                 6.6370
 IR Inten    --      2.8399                12.1564                 3.0315

                     52                     53                     54
                      A                      A                      A
 Frequencies --   3216.4979              3855.7743              3856.1689
 Red. masses --      1.0923                 1.0660                 1.0661
 Frc consts  --      6.6580                 9.3378                 9.3405
 IR Inten    --      3.4912               110.8698                55.4954

 - Thermochemistry -
 -------------------
 Temperature   298.150 Kelvin.  Pressure   1.00000 Atm.
 Atom     1 has atomic number  6 and mass  12.00000

 Molecular mass:   168.04226 amu.
 Principal axes and moments of inertia in atomic units:
                           1         2         3
     Eigenvalues --  1161.802922347.166413497.92791
           X            0.99941   0.03448   0.00001
           Y           -0.03448   0.99941  -0.00004
           Z           -0.00001   0.00004   1.00000
 This molecule is an asymmetric top.
 Rotational symmetry number  1.
 Warning -- assumption of classical behavior for rotation
           may cause significant error
 Rotational temperatures (Kelvin)      0.07455     0.03690     0.02476
 Rotational constants (GHZ):           1.55340     0.76890     0.51595
 Zero-point vibrational energy     398750.9 (Joules/Mol)
                                   95.30376 (Kcal/Mol)
 Warning -- explicit consideration of  17 degrees of freedom as
           vibrations may cause significant error
 Vibrational temperatures:     86.17   159.55   283.68   317.23   324.55
          (Kelvin)            382.87   406.20   488.98   523.08   549.97
                              560.93   584.81   632.03   761.18   831.69
                              834.68   887.83   900.58   924.80   930.49
                             1034.56  1043.33  1137.24  1158.49  1410.51
                             1433.00  1494.31  1500.72  1568.06  1591.07
                             1705.45  1739.92  1782.34  1842.59  1910.30
                             1954.24  2019.80  2060.55  2084.01  2117.52
                             2135.89  2170.75  2266.62  2383.84  2408.43
                             2450.57  4251.51  4424.51  4537.75  4583.67
                             4620.89  4627.82  5547.59  5548.16

 Zero-point correction=                           0.151876 (Hartree/Particle)
 Thermal correction to Energy=                    0.162502
 Thermal correction to Enthalpy=                  0.163446
 Thermal correction to Gibbs Free Energy=         0.116020
 Sum of electronic and zero-point Energies=           -610.265343
 Sum of electronic and thermal Energies=              -610.254717
 Sum of electronic and thermal Enthalpies=            -610.253773
 Sum of electronic and thermal Free Energies=         -610.301199

                     E (Thermal)             CV                S
                      KCal/Mol        Cal/Mol-Kelvin    Cal/Mol-Kelvin
 Total                  101.972             41.553             99.817
 Electronic               0.000              0.000              0.000
 Translational            0.889              2.981             41.265
 Rotational               0.889              2.981             30.635
 Vibrational            100.194             35.592             27.917
 Vibration     1          0.597              1.973              4.461
 Vibration     2          0.607              1.940              3.253
 Vibration     3          0.637              1.844              2.159
 Vibration     4          0.647              1.810              1.955
 Vibration     5          0.650              1.802              1.914
 Vibration     6          0.672              1.735              1.621
 Vibration     7          0.681              1.706              1.520
 Vibration     8          0.720              1.596              1.213
 Vibration     9          0.737              1.547              1.107
 Vibration    10          0.752              1.508              1.030
 Vibration    11          0.758              1.492              1.001
 Vibration    12          0.771              1.456              0.939
 Vibration    13          0.799              1.385              0.829
 Vibration    14          0.884              1.186              0.589
 Vibration    15          0.935              1.079              0.489
 Vibration    16          0.937              1.074              0.485
 Vibration    17          0.977              0.996              0.421

 Optimization completed.
    -- Stationary point found.
 Normal termination of Gaussian 09 at Thu Dec 19 12:11:14 2024.
