 Gaussian 09, Revision E.01,
 Gaussian 09:  ES64L-G09RevE.01 30-Nov-2015

 -------------------------------------------------------
 # opt freq b3pw91/6-31+g(d,p) EmpiricalDispersion=GD3BJ
 -------------------------------------------------------

 ----------
 [No Title]
 ----------
 Symbolic Z-matrix:
 Charge =  1 Multiplicity = 1

 SCF Done:  E(RB3PW91) =  -610.773258552     A.U. after   14 cycles
 SCF Done:  E(RB3PW91) =  -610.773269428     A.U. after   12 cycles
 SCF Done:  E(RB3PW91) =  -610.773281334     A.U. after   11 cycles
 SCF Done:  E(RB3PW91) =  -610.773284798     A.U. after   10 cycles
 SCF Done:  E(RB3PW91) =  -610.773285779     A.U. after    9 cycles
 Optimization completed.
    -- Stationary point found.
 Normal termination of Gaussian 09 at Thu Dec 19 12:18:40 2024.

 ----------------------------------------------------------------------
 #N Geom=AllCheck Guess=TCheck SCRF=Check GenChk RB3PW91/6-31+G(d,p) Fr
 eq
 ----------------------------------------------------------------------

 Structure from the checkpoint file:  "B3PWD3BJTHAPyang.chk"
 ----------
 [No Title]
 ----------
 Charge =  1 Multiplicity = 1

                         Standard orientation:
 ---------------------------------------------------------------------
 Center     Atomic      Atomic             Coordinates (Angstroms)
 Number     Number       Type             X           Y           Z
 ---------------------------------------------------------------------
      1          6           0        1.544966   -1.264245   -0.000271
      2          6           0        2.279619   -0.075872   -0.000140
      3          6           0        1.632188    1.173160    0.000012
      4          6           0        0.257827    1.209081    0.000068
      5          6           0       -0.556664    0.024267   -0.000006
      6          6           0        0.163890   -1.223382   -0.000224
      7          8           0       -0.557089   -2.349565   -0.000379
      8          6           0       -1.977411    0.083110    0.000208
      9          6           0       -2.900346   -1.078169    0.000240
     10          8           0       -2.619514    1.214997    0.000414
     11          8           0       -0.405115    2.392286    0.000153
     12          8           0        3.603372   -0.197511   -0.000200
     13          1           0        2.079876   -2.208140   -0.000425
     14          1           0        2.207534    2.094533    0.000032
     15          1           0        0.016687   -3.128333   -0.000510
     16          1           0       -2.724820   -1.709845   -0.874877
     17          1           0       -2.724404   -1.710162    0.875040
     18          1           0       -3.925277   -0.708840    0.000538
     19          1           0       -2.007248    1.985657    0.000401
     20          1           0        0.184645    3.158461    0.000676
     21          1           0        4.055366    0.657307   -0.000103
 ---------------------------------------------------------------------

 SCF Done:  E(RB3PW91) =  -610.773285779     A.U. after    1 cycles

 The electronic state is 1-A.
 Alpha  occ. eigenvalues --  -19.38202 -19.37139 -19.35604 -19.35324 -10.46734
 Alpha  occ. eigenvalues --  -10.44696 -10.43879 -10.43618 -10.37564 -10.35498
 Alpha  occ. eigenvalues --  -10.34253 -10.32510  -1.29172  -1.26704  -1.25931
 Alpha  occ. eigenvalues --   -1.25502  -1.04060  -0.97046  -0.93192  -0.91717
 Alpha  occ. eigenvalues --   -0.84158  -0.82387  -0.79912  -0.77013  -0.74589
 Alpha  occ. eigenvalues --   -0.72358  -0.68646  -0.66495  -0.63887  -0.62447
 Alpha  occ. eigenvalues --   -0.61667  -0.61372  -0.60412  -0.58972  -0.57842
 Alpha  occ. eigenvalues --   -0.57264  -0.56127  -0.54196  -0.53990  -0.52374
 Alpha  occ. eigenvalues --   -0.51830  -0.47914  -0.41732  -0.40599
 Alpha virt. eigenvalues --   -0.24792  -0.16729  -0.13935  -0.13804  -0.11877
 Alpha virt. eigenvalues --   -0.11444  -0.09935  -0.07521  -0.06735  -0.06723
 Alpha virt. eigenvalues --   -0.06364  -0.04698  -0.03675  -0.03590  -0.02809

 Mulliken charges:
               1
     1  C    1.290168
     2  C   -1.079132
     3  C    1.043923
     4  C   -1.262527
     5  C    2.498060
     6  C   -2.630990
     7  O   -0.485439
     8  C    0.466376
     9  C   -0.189451
    10  O   -0.360139
    11  O   -0.589189
    12  O   -0.439451
    13  H    0.184076
    14  H    0.161135
    15  H    0.417943
    16  H    0.231231
    17  H    0.231222
    18  H    0.222859
    19  H    0.464832
    20  H    0.434614
    21  H    0.389879
 Sum of Mulliken charges =   1.00000

 Dipole moment (field-independent basis, Debye):
    X=              1.6779    Y=              1.6751    Z=              0.0009  Tot=              2.3709
 Quadrupole moment (field-independent basis, Debye-Ang):
   XX=            -42.3672   YY=            -35.8042   ZZ=            -69.2840
   XY=              8.8909   XZ=             -0.0010   YZ=              0.0063

  Exact polarizability: 161.920   2.192 115.081  -0.007   0.008  54.749
 Approx polarizability: 268.311  -4.008 183.366  -0.011   0.014  81.523

                      1                      2                      3
                      A                      A                      A
 Frequencies --     57.2513                91.7040               192.6962
 Red. masses --      4.7927                 5.0360                 3.3288
 Frc consts  --      0.0093                 0.0250                 0.0728
 IR Inten    --      0.6171                 0.2093                 3.3708

                      4                      5                      6
                      A                      A                      A
 Frequencies --    208.8616               231.2418               265.8624
 Red. masses --      4.5374                 1.2850                 4.7578
 Frc consts  --      0.1166                 0.0405                 0.1981
 IR Inten    --      3.6929                 0.5723                 1.1742

                      7                      8                      9
                      A                      A                      A
 Frequencies --    277.4331               340.7298               348.6113
 Red. masses --      2.7258                 1.2416                 5.4700
 Frc consts  --      0.1236                 0.0849                 0.3917
 IR Inten    --     44.4128                92.3517                12.7015

                     10                     11                     12
                      A                      A                      A
 Frequencies --    372.5438               397.9242               427.0811
 Red. masses --      4.9484                 4.8536                 5.7155
 Frc consts  --      0.4046                 0.4528                 0.6142
 IR Inten    --      4.7520                 5.8842                 4.9821

                     13                     14                     15
                      A                      A                      A
 Frequencies --    458.0383               473.9435               525.6490
 Red. masses --      1.1293                 1.1187                 7.0188
 Frc consts  --      0.1396                 0.1481                 1.1426
 IR Inten    --     21.2716               190.1547                 3.9260

                     16                     17                     18
                      A                      A                      A
 Frequencies --    542.7624               568.9579               613.6455
 Red. masses --      3.9444                 2.7209                 8.0059
 Frc consts  --      0.6846                 0.5190                 1.7762
 IR Inten    --      8.0434                 0.2858                 0.3849

                     19                     20                     21
                      A                      A                      A
 Frequencies --    623.3342               644.5411               650.8959
 Red. masses --      3.3328                 3.4518                 2.9457
 Frc consts  --      0.7630                 0.8449                 0.7353
 IR Inten    --     11.9953                30.1597                23.5491

                     22                     23                     24
                      A                      A                      A
 Frequencies --    719.8019               724.6154               801.0391
 Red. masses --      4.2027                 5.6276                 1.6553
 Frc consts  --      1.2829                 1.7409                 0.6258
 IR Inten    --      4.6354                 1.5684                59.1767

                     25                     26                     27
                      A                      A                      A
 Frequencies --    833.9023               839.0530               989.5504
 Red. masses --      1.4602                 1.2924                 2.0260
 Frc consts  --      0.5983                 0.5361                 1.1689
 IR Inten    --     93.1101                42.9715                36.1059

                     28                     29                     30
                      A                      A                      A
 Frequencies --   1041.6121              1045.2392              1087.0183
 Red. masses --      3.2020                 1.6782                 2.3969
 Frc consts  --      2.0468                 1.0803                 1.6687
 IR Inten    --      0.6395                 0.4470                58.5438

                     31                     32                     33
                      A                      A                      A
 Frequencies --   1098.8520              1182.1441              1193.6013
 Red. masses --      3.0653                 1.2572                 1.2073
 Frc consts  --      2.1807                 1.0351                 1.0134
 IR Inten    --     82.9794                85.1273                81.4763

                     34                     35                     36
                      A                      A                      A
 Frequencies --   1226.4722              1257.4771              1299.9135
 Red. masses --      1.5614                 2.4691                 1.9162
 Frc consts  --      1.3838                 2.3003                 1.9078
 IR Inten    --    118.1540                56.0692                82.2289

                     37                     38                     39
                      A                      A                      A
 Frequencies --   1328.6463              1390.2145              1403.2505
 Red. masses --      1.9504                 1.1704                 2.7334
 Frc consts  --      2.0286                 1.3328                 3.1712
 IR Inten    --    157.4189                79.4932               217.0790

                     40                     41                     42
                      A                      A                      A
 Frequencies --   1438.1178              1458.1020              1458.7176
 Red. masses --      1.6456                 1.0430                 5.1157
 Frc consts  --      2.0052                 1.3065                 6.4136
 IR Inten    --     16.8493                19.5307                37.3857

                     43                     44                     45
                      A                      A                      A
 Frequencies --   1496.1604              1531.8741              1564.8401
 Red. masses --      2.4793                 2.8878                 4.8789
 Frc consts  --      3.2699                 3.9926                 7.0390
 IR Inten    --    376.8505               290.9792               213.6918

                     46                     47                     48
                      A                      A                      A
 Frequencies --   1591.8313              1626.7603              1703.9345
 Red. masses --      3.6559                 5.8059                 7.1391
 Frc consts  --      5.4581                 9.0524                12.2124
 IR Inten    --    212.1671               218.6965               842.0495

                     49                     50                     51
                      A                      A                      A
 Frequencies --   3080.5825              3153.7090              3200.9724
 Red. masses --      1.0367                 1.0984                 1.1060
 Frc consts  --      5.7966                 6.4366                 6.6767
 IR Inten    --     15.1973                 1.9069                 5.6565

                     52                     53                     54
                      A                      A                      A
 Frequencies --   3205.3899              3227.5004              3474.6155
 Red. masses --      1.0934                 1.0936                 1.0671
 Frc consts  --      6.6191                 6.7116                 7.5908
 IR Inten    --      0.0886                 3.3066               281.6499

                     55                     56                     57
                      A                      A                      A
 Frequencies --   3823.7752              3831.0045              3833.4054
 Red. masses --      1.0665                 1.0669                 1.0670
 Frc consts  --      9.1875                 9.2258                 9.2382
 IR Inten    --    178.7468                68.1917               289.3136

 - Thermochemistry -
 -------------------
 Temperature   298.150 Kelvin.  Pressure   1.00000 Atm.
 Atom     1 has atomic number  6 and mass  12.00000

 Molecular mass:   169.05008 amu.
 Principal axes and moments of inertia in atomic units:
                           1         2         3
     Eigenvalues --  1180.557242367.662483537.19879
           X            0.99943   0.03390   0.00008
           Y           -0.03390   0.99943  -0.00012
           Z           -0.00008   0.00011   1.00000
 This molecule is an asymmetric top.
 Rotational symmetry number  1.
 Warning -- assumption of classical behavior for rotation
           may cause significant error
 Rotational temperatures (Kelvin)      0.07337     0.03658     0.02449
 Rotational constants (GHZ):           1.52872     0.76225     0.51022
 Zero-point vibrational energy     433511.1 (Joules/Mol)
                                  103.61165 (Kcal/Mol)
 Warning -- explicit consideration of  18 degrees of freedom as
           vibrations may cause significant error
 Vibrational temperatures:     82.37   131.94   277.25   300.50   332.70
          (Kelvin)            382.52   399.16   490.23   501.57   536.01
                              572.52   614.47   659.01   681.90   756.29
                              780.91   818.60   882.90   896.84   927.35
                              936.49  1035.63  1042.56  1152.52  1199.80
                             1207.21  1423.74  1498.65  1503.86  1563.97
                             1581.00  1700.84  1717.32  1764.62  1809.23
                             1870.28  1911.62  2000.21  2018.96  2069.13
                             2097.88  2098.77  2152.64  2204.02  2251.45
                             2290.29  2340.54  2451.58  4432.27  4537.48
                             4605.48  4611.84  4643.65  4999.19  5501.55
                             5511.95  5515.41

 Zero-point correction=                           0.165116 (Hartree/Particle)
 Thermal correction to Energy=                    0.176097
 Thermal correction to Enthalpy=                  0.177041
 Thermal correction to Gibbs Free Energy=         0.128905
 Sum of electronic and zero-point Energies=           -610.608170
 Sum of electronic and thermal Energies=              -610.597189
 Sum of electronic and thermal Enthalpies=            -610.596245
 Sum of electronic and thermal Free Energies=         -610.644381

                     E (Thermal)             CV                S
                      KCal/Mol        Cal/Mol-Kelvin    Cal/Mol-Kelvin
 Total                  110.502             43.270            101.310
 Electronic               0.000              0.000              0.000
 Translational            0.889              2.981             41.283
 Rotational               0.889              2.981             30.670
 Vibrational            108.725             37.308             29.356
 Vibration     1          0.596              1.975              4.550
 Vibration     2          0.602              1.955              3.623
 Vibration     3          0.635              1.850              2.202
 Vibration     4          0.642              1.827              2.054
 Vibration     5          0.653              1.793              1.869
 Vibration     6          0.672              1.736              1.623
 Vibration     7          0.678              1.715              1.549
 Vibration     8          0.720              1.594              1.209
 Vibration     9          0.726              1.578              1.172
 Vibration    10          0.744              1.529              1.069
 Vibration    11          0.764              1.475              0.970
 Vibration    12          0.789              1.411              0.868
 Vibration    13          0.816              1.343              0.772
 Vibration    14          0.831              1.308              0.727
 Vibration    15          0.881              1.193              0.597
 Vibration    16          0.898              1.156              0.559
 Vibration    17          0.925              1.098              0.506
 Vibration    18          0.973              1.003              0.427

 Optimization completed.
    -- Stationary point found.
 Normal termination of Gaussian 09 at Thu Dec 19 12:19:44 2024.
