 Gaussian 09, Revision E.01,
 Gaussian 09:  ES64L-G09RevE.01 30-Nov-2015

 -----------------------------------------
 # opt freq cam-b3lyp/6-31+g(d,p) em=gd3bj
 -----------------------------------------

 ----------
 [No Title]
 ----------
 Symbolic Z-matrix:
 Charge =  1 Multiplicity = 1

 SCF Done:  E(RCAM-B3LYP) =  -610.713775713     A.U. after   15 cycles
 SCF Done:  E(RCAM-B3LYP) =  -610.714097290     A.U. after   12 cycles
 SCF Done:  E(RCAM-B3LYP) =  -610.713958886     A.U. after   12 cycles
 SCF Done:  E(RCAM-B3LYP) =  -610.714152262     A.U. after    8 cycles
 SCF Done:  E(RCAM-B3LYP) =  -610.714171991     A.U. after   10 cycles
 SCF Done:  E(RCAM-B3LYP) =  -610.714175559     A.U. after   10 cycles
 SCF Done:  E(RCAM-B3LYP) =  -610.714176362     A.U. after    9 cycles
 Optimization completed.
    -- Stationary point found.
 Normal termination of Gaussian 09 at Sun Jun 16 16:14:06 2024.

 ----------------------------------------------------------------------
 #N Geom=AllCheck Guess=TCheck SCRF=Check GenChk RCAM-B3LYP/6-31+G(d,p)
  Freq
 ----------------------------------------------------------------------

 Structure from the checkpoint file:  "camb3lypTHAPyang.chk"
 ----------
 [No Title]
 ----------
 Charge =  1 Multiplicity = 1

                         Standard orientation:
 ---------------------------------------------------------------------
 Center     Atomic      Atomic             Coordinates (Angstroms)
 Number     Number       Type             X           Y           Z
 ---------------------------------------------------------------------
      1          6           0        1.541539   -1.264399   -0.000210
      2          6           0        2.274058   -0.078350   -0.000049
      3          6           0        1.630496    1.169890    0.000007
      4          6           0        0.259748    1.206276   -0.000020
      5          6           0       -0.554673    0.024571   -0.000090
      6          6           0        0.163697   -1.220847   -0.000267
      7          8           0       -0.557656   -2.346328   -0.000481
      8          6           0       -1.974392    0.084459    0.000189
      9          6           0       -2.901853   -1.075113    0.000342
     10          8           0       -2.611687    1.214399    0.000447
     11          8           0       -0.400223    2.391136   -0.000094
     12          8           0        3.596981   -0.199175   -0.000017
     13          1           0        2.075284   -2.208019   -0.000324
     14          1           0        2.207083    2.089424   -0.000068
     15          1           0        0.008550   -3.131347   -0.000559
     16          1           0       -2.728130   -1.705731   -0.874250
     17          1           0       -2.727503   -1.706079    0.874554
     18          1           0       -3.923779   -0.700107    0.000770
     19          1           0       -2.006772    1.990601    0.000389
     20          1           0        0.186391    3.160676    0.001124
     21          1           0        4.057824    0.651405    0.000123
 ---------------------------------------------------------------------

 SCF Done:  E(RCAM-B3LYP) =  -610.714176362     A.U. after    1 cycles

 The electronic state is 1-A.
 Alpha  occ. eigenvalues --  -19.46411 -19.45608 -19.43773 -19.43394 -10.55978
 Alpha  occ. eigenvalues --  -10.53568 -10.52757 -10.52492 -10.45853 -10.43844
 Alpha  occ. eigenvalues --  -10.42566 -10.41131  -1.37097  -1.34428  -1.33531
 Alpha  occ. eigenvalues --   -1.33019  -1.12073  -1.04888  -1.00872  -0.99435
 Alpha  occ. eigenvalues --   -0.91385  -0.89661  -0.87253  -0.83870  -0.81592
 Alpha  occ. eigenvalues --   -0.79361  -0.75397  -0.73226  -0.71173  -0.69052
 Alpha  occ. eigenvalues --   -0.68435  -0.68002  -0.67342  -0.65861  -0.64411
 Alpha  occ. eigenvalues --   -0.63950  -0.62572  -0.60560  -0.60421  -0.58700
 Alpha  occ. eigenvalues --   -0.58159  -0.54138  -0.46713  -0.45821
 Alpha virt. eigenvalues --   -0.20267  -0.11789  -0.11479  -0.09458  -0.09221
 Alpha virt. eigenvalues --   -0.08670  -0.07612  -0.05395  -0.05202  -0.04521
 Alpha virt. eigenvalues --   -0.03791  -0.02898  -0.01894  -0.01132  -0.01131

 Mulliken charges:
               1
     1  C    0.919059
     2  C   -0.705750
     3  C    0.613506
     4  C   -0.835960
     5  C    1.973891
     6  C   -2.010230
     7  O   -0.540921
     8  C    0.657100
     9  C   -0.237732
    10  O   -0.393482
    11  O   -0.628458
    12  O   -0.481053
    13  H    0.167627
    14  H    0.144214
    15  H    0.419218
    16  H    0.220035
    17  H    0.220020
    18  H    0.207555
    19  H    0.466222
    20  H    0.434458
    21  H    0.390680
 Sum of Mulliken charges =   1.00000

 Dipole moment (field-independent basis, Debye):
    X=              1.5626    Y=              1.7310    Z=              0.0023  Tot=              2.3319
 Quadrupole moment (field-independent basis, Debye-Ang):
   XX=            -43.7480   YY=            -36.8998   ZZ=            -69.8003
   XY=              8.9910   XZ=             -0.0004   YZ=              0.0102

  Exact polarizability: 158.543   1.730 113.306  -0.003   0.007  55.233
 Approx polarizability: 184.137  -2.110 139.221  -0.001   0.009  71.396

                      1                      2                      3
                      A                      A                      A
 Frequencies --     61.2149                95.6317               195.7838
 Red. masses --      4.5663                 5.2204                 3.2167
 Frc consts  --      0.0101                 0.0281                 0.0726
 IR Inten    --      0.4069                 0.0757                 3.6970

                      4                      5                      6
                      A                      A                      A
 Frequencies --    215.3235               233.2787               270.1259
 Red. masses --      4.0873                 1.3349                 4.7407
 Frc consts  --      0.1117                 0.0428                 0.2038
 IR Inten    --      2.8404                 0.3362                 1.4818

                      7                      8                      9
                      A                      A                      A
 Frequencies --    283.9385               352.0014               358.2469
 Red. masses --      3.1034                 5.4835                 1.1896
 Frc consts  --      0.1474                 0.4003                 0.0900
 IR Inten    --     33.7979                13.2989               104.2089

                     10                     11                     12
                      A                      A                      A
 Frequencies --    376.3567               403.0780               430.7244
 Red. masses --      4.8722                 4.9629                 5.7072
 Frc consts  --      0.4066                 0.4751                 0.6238
 IR Inten    --      5.4254                 6.1175                 5.7604

                     13                     14                     15
                      A                      A                      A
 Frequencies --    459.5257               478.8110               532.3728
 Red. masses --      1.1242                 1.1189                 6.9065
 Frc consts  --      0.1399                 0.1511                 1.1533
 IR Inten    --     47.2992               176.7716                 4.5321

                     16                     17                     18
                      A                      A                      A
 Frequencies --    549.7298               580.5706               618.6334
 Red. masses --      3.9674                 2.6604                 7.9156
 Frc consts  --      0.7064                 0.5283                 1.7848
 IR Inten    --      9.5145                 0.3119                 0.3379

                     19                     20                     21
                      A                      A                      A
 Frequencies --    636.0992               650.7054               662.9397
 Red. masses --      3.3287                 3.4370                 2.8182
 Frc consts  --      0.7935                 0.8574                 0.7297
 IR Inten    --     10.3089                30.4808                23.3984

                     22                     23                     24
                      A                      A                      A
 Frequencies --    726.5359               744.3339               824.9918
 Red. masses --      4.2018                 4.9337                 1.7062
 Frc consts  --      1.3068                 1.6105                 0.6842
 IR Inten    --      4.6804                 3.3770                48.0773

                     25                     26                     27
                      A                      A                      A
 Frequencies --    852.0745               856.6002               996.5055
 Red. masses --      1.2929                 1.5212                 2.0925
 Frc consts  --      0.5530                 0.6576                 1.2242
 IR Inten    --    157.5554                 1.2053                38.2004

                     28                     29                     30
                      A                      A                      A
 Frequencies --   1049.4721              1062.6787              1097.7187
 Red. masses --      3.1792                 1.6949                 2.3420
 Frc consts  --      2.0631                 1.1277                 1.6627
 IR Inten    --      2.5362                 0.9060                72.5325

                     31                     32                     33
                      A                      A                      A
 Frequencies --   1109.1291              1184.9600              1196.7916
 Red. masses --      2.9279                 1.2555                 1.2135
 Frc consts  --      2.1221                 1.0387                 1.0241
 IR Inten    --     86.5538               116.3413                45.8334

                     34                     35                     36
                      A                      A                      A
 Frequencies --   1227.0323              1263.4934              1308.9519
 Red. masses --      1.5510                 2.5440                 1.8931
 Frc consts  --      1.3759                 2.3929                 1.9110
 IR Inten    --    111.3679                59.3720                92.6579

                     37                     38                     39
                      A                      A                      A
 Frequencies --   1331.3998              1406.0819              1409.2536
 Red. masses --      2.0236                 3.0445                 1.2010
 Frc consts  --      2.1134                 3.5464                 1.4053
 IR Inten    --    166.6742               355.2262                28.3311

                     40                     41                     42
                      A                      A                      A
 Frequencies --   1441.8038              1456.4931              1473.0151
 Red. masses --      2.0876                 2.7038                 1.0436
 Frc consts  --      2.5569                 3.3794                 1.3341
 IR Inten    --     37.5058                63.3126                19.3514

                     43                     44                     45
                      A                      A                      A
 Frequencies --   1502.8283              1543.0025              1579.7483
 Red. masses --      2.2634                 2.8827                 4.9571
 Frc consts  --      3.0118                 4.0437                 7.2888
 IR Inten    --    418.1654               340.1066               242.8826

                     46                     47                     48
                      A                      A                      A
 Frequencies --   1602.3758              1645.8371              1718.8622
 Red. masses --      3.7248                 6.0586                 7.1404
 Frc consts  --      5.6349                 9.6693                12.4296
 IR Inten    --    206.7383               237.0296               923.7492

                     49                     50                     51
                      A                      A                      A
 Frequencies --   3097.8893              3169.1879              3210.7529
 Red. masses --      1.0364                 1.0994                 1.1072
 Frc consts  --      5.8603                 6.5056                 6.7250
 IR Inten    --     14.0521                 2.0622                 5.1130

                     52                     53                     54
                      A                      A                      A
 Frequencies --   3216.4142              3237.9522              3493.9332
 Red. masses --      1.0940                 1.0942                 1.0670
 Frc consts  --      6.6681                 6.7589                 7.6747
 IR Inten    --      0.3136                 4.2470               312.8167

                     55                     56                     57
                      A                      A                      A
 Frequencies --   3829.7890              3835.5971              3839.0508
 Red. masses --      1.0666                 1.0671                 1.0670
 Frc consts  --      9.2173                 9.2494                 9.2654
 IR Inten    --    201.6918                90.1205               290.4277

 - Thermochemistry -
 -------------------
 Temperature   298.150 Kelvin.  Pressure   1.00000 Atm.
 Atom     1 has atomic number  6 and mass  12.00000

 Molecular mass:   169.05008 amu.
 Principal axes and moments of inertia in atomic units:
                           1         2         3
     Eigenvalues --  1178.144092360.598903527.73603
           X            0.99943   0.03388   0.00006
           Y           -0.03388   0.99943  -0.00009
           Z           -0.00006   0.00009   1.00000
 This molecule is an asymmetric top.
 Rotational symmetry number  1.
 Warning -- assumption of classical behavior for rotation
           may cause significant error
 Rotational temperatures (Kelvin)      0.07352     0.03669     0.02455
 Rotational constants (GHZ):           1.53185     0.76453     0.51159
 Zero-point vibrational energy     436563.0 (Joules/Mol)
                                  104.34105 (Kcal/Mol)
 Warning -- explicit consideration of  18 degrees of freedom as
           vibrations may cause significant error
 Vibrational temperatures:     88.07   137.59   281.69   309.80   335.64
          (Kelvin)            388.65   408.52   506.45   515.44   541.49
                              579.94   619.72   661.15   688.90   765.96
                              790.94   835.31   890.07   915.20   936.22
                              953.82  1045.32  1070.93  1186.98  1225.94
                             1232.46  1433.75  1509.95  1528.96  1579.37
                             1595.79  1704.89  1721.91  1765.42  1817.88
                             1883.29  1915.58  2023.04  2027.60  2074.43
                             2095.57  2119.34  2162.23  2220.03  2272.90
                             2305.46  2367.99  2473.06  4457.17  4559.75
                             4619.55  4627.70  4658.69  5026.98  5510.21
                             5518.56  5523.53

 Zero-point correction=                           0.166278 (Hartree/Particle)
 Thermal correction to Energy=                    0.177103
 Thermal correction to Enthalpy=                  0.178047
 Thermal correction to Gibbs Free Energy=         0.130267
 Sum of electronic and zero-point Energies=           -610.547898
 Sum of electronic and thermal Energies=              -610.537074
 Sum of electronic and thermal Enthalpies=            -610.536129
 Sum of electronic and thermal Free Energies=         -610.583910

                     E (Thermal)             CV                S
                      KCal/Mol        Cal/Mol-Kelvin    Cal/Mol-Kelvin
 Total                  111.134             42.784            100.562
 Electronic               0.000              0.000              0.000
 Translational            0.889              2.981             41.283
 Rotational               0.889              2.981             30.663
 Vibrational            109.356             36.823             28.616
 Vibration     1          0.597              1.973              4.418
 Vibration     2          0.603              1.952              3.541
 Vibration     3          0.636              1.846              2.172
 Vibration     4          0.645              1.818              1.998
 Vibration     5          0.654              1.790              1.854
 Vibration     6          0.674              1.728              1.595
 Vibration     7          0.682              1.703              1.510
 Vibration     8          0.729              1.571              1.157
 Vibration     9          0.733              1.558              1.130
 Vibration    10          0.747              1.520              1.054
 Vibration    11          0.768              1.463              0.951
 Vibration    12          0.792              1.403              0.856
 Vibration    13          0.817              1.340              0.767
 Vibration    14          0.835              1.297              0.713
 Vibration    15          0.887              1.178              0.582
 Vibration    16          0.905              1.140              0.545
 Vibration    17          0.937              1.073              0.484
 Vibration    18          0.978              0.993              0.419

 Optimization completed.
    -- Stationary point found.
 Normal termination of Gaussian 09 at Sun Jun 16 16:17:50 2024.
