 Gaussian 09, Revision E.01,
 Gaussian 09:  ES64L-G09RevE.01 30-Nov-2015

 -----------------------------------------
 # opt freq cam-b3lyp/6-31+g(d,p) em=gd3bj
 -----------------------------------------

 ----------
 [No Title]
 ----------
 Symbolic Z-matrix:
 Charge =  0 Multiplicity = 1

 SCF Done:  E(RCAM-B3LYP) =  -610.362999929     A.U. after   15 cycles
 SCF Done:  E(RCAM-B3LYP) =  -610.363331824     A.U. after   13 cycles
 SCF Done:  E(RCAM-B3LYP) =  -610.363121449     A.U. after   13 cycles
 SCF Done:  E(RCAM-B3LYP) =  -610.363386094     A.U. after    9 cycles
 SCF Done:  E(RCAM-B3LYP) =  -610.363408648     A.U. after   12 cycles
 SCF Done:  E(RCAM-B3LYP) =  -610.363410169     A.U. after   11 cycles
 SCF Done:  E(RCAM-B3LYP) =  -610.363407961     A.U. after   11 cycles
 SCF Done:  E(RCAM-B3LYP) =  -610.363411837     A.U. after   11 cycles
 Optimization completed.
    -- Stationary point found.
 Normal termination of Gaussian 09 at Sun Jun 16 15:55:53 2024.

 ----------------------------------------------------------------------
 #N Geom=AllCheck Guess=TCheck SCRF=Check GenChk RCAM-B3LYP/6-31+G(d,p)
  Freq
 ----------------------------------------------------------------------

 Structure from the checkpoint file:  "camb3lypTHAP.chk"
 ----------
 [No Title]
 ----------
 Charge =  0 Multiplicity = 1

                         Standard orientation:
 ---------------------------------------------------------------------
 Center     Atomic      Atomic             Coordinates (Angstroms)
 Number     Number       Type             X           Y           Z
 ---------------------------------------------------------------------
      1          6           0        1.521152    1.248137   -0.000066
      2          6           0        2.253046    0.058550   -0.000039
      3          6           0        1.622399   -1.172939    0.000014
      4          6           0        0.228362   -1.225604    0.000043
      5          6           0       -0.563918   -0.038257    0.000043
      6          6           0        0.140338    1.191330   -0.000031
      7          8           0       -0.579834    2.344261   -0.000037
      8          6           0       -2.022692   -0.167696    0.000140
      9          6           0       -2.947499    1.017590   -0.000058
     10          8           0       -2.540847   -1.297820    0.000148
     11          8           0       -0.332352   -2.430054    0.000022
     12          8           0        3.601993    0.181271   -0.000072
     13          1           0        2.048277    2.195995   -0.000103
     14          1           0        2.176075   -2.105332    0.000022
     15          1           0        0.020403    3.099603   -0.000187
     16          1           0       -2.773933    1.647011   -0.875172
     17          1           0       -3.969381    0.639755   -0.000033
     18          1           0       -2.773975    1.647249    0.874893
     19          1           0       -1.323521   -2.282316   -0.000062
     20          1           0        4.017262   -0.689900   -0.000120
 ---------------------------------------------------------------------

 SCF Done:  E(RCAM-B3LYP) =  -610.363411837     A.U. after    1 cycles

 The electronic state is 1-A.
 Alpha  occ. eigenvalues --  -19.28758 -19.28429 -19.24841 -19.22985 -10.37173
 Alpha  occ. eigenvalues --  -10.36321 -10.35863 -10.35476 -10.28203 -10.27319
 Alpha  occ. eigenvalues --  -10.26784 -10.26206  -1.17965  -1.17407  -1.16215
 Alpha  occ. eigenvalues --   -1.12535  -0.95188  -0.86868  -0.84142  -0.82000
 Alpha  occ. eigenvalues --   -0.74117  -0.72182  -0.67837  -0.65818  -0.60167
 Alpha  occ. eigenvalues --   -0.59528  -0.58204  -0.55669  -0.53969  -0.51997
 Alpha  occ. eigenvalues --   -0.50901  -0.50778  -0.49041  -0.48666  -0.48623
 Alpha  occ. eigenvalues --   -0.47580  -0.45451  -0.43805  -0.43644  -0.43025
 Alpha  occ. eigenvalues --   -0.37324  -0.33385  -0.30098  -0.28888
 Alpha virt. eigenvalues --   -0.01397   0.01452   0.02212   0.03817   0.04462
 Alpha virt. eigenvalues --    0.05961   0.06434   0.06958   0.07340   0.07469
 Alpha virt. eigenvalues --    0.08718   0.09029   0.10455   0.10826   0.11517

 Mulliken charges:
               1
     1  C    0.799753
     2  C   -0.531471
     3  C    0.790113
     4  C   -1.031834
     5  C    1.933099
     6  C   -1.942191
     7  O   -0.567706
     8  C    0.681333
     9  C   -0.513202
    10  O   -0.510293
    11  O   -0.568747
    12  O   -0.538984
    13  H    0.124516
    14  H    0.130731
    15  H    0.389601
    16  H    0.183432
    17  H    0.175171
    18  H    0.183429
    19  H    0.443785
    20  H    0.369466
 Sum of Mulliken charges =   0.00000

 Dipole moment (field-independent basis, Debye):
    X=              2.2678    Y=              3.1445    Z=             -0.0006  Tot=              3.8770
 Quadrupole moment (field-independent basis, Debye-Ang):
   XX=            -67.5743   YY=            -66.4216   ZZ=            -71.9893
   XY=             -8.9593   XZ=              0.0003   YZ=             -0.0002

  Exact polarizability: 148.493   2.394 119.607  -0.002  -0.002  60.370
 Approx polarizability: 165.294   9.388 152.045  -0.003  -0.002  77.185

                      1                      2                      3
                      A                      A                      A
 Frequencies --     60.1625               109.2563               201.7636
 Red. masses --      3.8053                 9.9923                 2.6287
 Frc consts  --      0.0081                 0.0703                 0.0630
 IR Inten    --      1.1844                 0.2679                 3.8485

                      4                      5                      6
                      A                      A                      A
 Frequencies --    225.5236               231.8495               268.8180
 Red. masses --      1.7069                 2.8074                 4.5735
 Frc consts  --      0.0511                 0.0889                 0.1947
 IR Inten    --      0.0276                 1.2681                11.9290

                      7                      8                      9
                      A                      A                      A
 Frequencies --    289.3357               342.5784               365.5625
 Red. masses --      4.3923                 5.7727                 5.1048
 Frc consts  --      0.2166                 0.3992                 0.4019
 IR Inten    --      2.0947                 9.0873                 3.2265

                     10                     11                     12
                      A                      A                      A
 Frequencies --    384.4900               392.0206               404.2942
 Red. masses --      4.9312                 1.1631                 1.1191
 Frc consts  --      0.4295                 0.1053                 0.1078
 IR Inten    --      6.6222                 1.9079               210.0907

                     13                     14                     15
                      A                      A                      A
 Frequencies --    438.9267               536.9862               583.4014
 Red. masses --      6.4875                 6.7203                 5.7804
 Frc consts  --      0.7364                 1.1417                 1.1592
 IR Inten    --      4.0450                 9.3033                23.8370

                     16                     17                     18
                      A                      A                      A
 Frequencies --    589.6302               621.4828               638.2117
 Red. masses --      2.9082                 7.5157                 3.1451
 Frc consts  --      0.5957                 1.7103                 0.7548
 IR Inten    --      0.3144                 4.8343                 1.2675

                     19                     20                     21
                      A                      A                      A
 Frequencies --    653.1749               654.5125               724.1050
 Red. masses --      4.0442                 2.6698                 3.9540
 Frc consts  --      1.0166                 0.6738                 1.2215
 IR Inten    --     17.8374                13.6733                14.4389

                     22                     23                     24
                      A                      A                      A
 Frequencies --    745.3183               816.7240               829.9408
 Red. masses --      4.8428                 1.7730                 1.7261
 Frc consts  --      1.5850                 0.6968                 0.7005
 IR Inten    --      0.3141                42.3949                53.5869

                     25                     26                     27
                      A                      A                      A
 Frequencies --    959.3657               990.6708              1048.4590
 Red. masses --      1.0630                 2.1388                 3.2234
 Frc consts  --      0.5764                 1.2367                 2.0877
 IR Inten    --     88.3614                38.0041                10.6856

                     28                     29                     30
                      A                      A                      A
 Frequencies --   1060.3100              1101.8721              1115.7181
 Red. masses --      1.8146                 2.4735                 4.1865
 Frc consts  --      1.2020                 1.7694                 3.0705
 IR Inten    --      3.6409                42.5087                74.2357

                     31                     32                     33
                      A                      A                      A
 Frequencies --   1187.6876              1214.0068              1241.8386
 Red. masses --      1.2828                 1.4090                 2.1071
 Frc consts  --      1.0661                 1.2235                 1.9146
 IR Inten    --    141.0704                22.8379               200.0383

                     34                     35                     36
                      A                      A                      A
 Frequencies --   1286.6296              1327.5529              1360.9388
 Red. masses --      1.6472                 3.2005                 3.1462
 Frc consts  --      1.6066                 3.3233                 3.4334
 IR Inten    --    233.7855               117.4243               151.2946

                     37                     38                     39
                      A                      A                      A
 Frequencies --   1416.9689              1425.9719              1462.9823
 Red. masses --      2.1511                 1.9755                 1.2140
 Frc consts  --      2.5447                 2.3668                 1.5310
 IR Inten    --     63.3093                42.2605                37.5969

                     40                     41                     42
                      A                      A                      A
 Frequencies --   1485.6311              1486.6597              1520.5522
 Red. masses --      1.0459                 2.8017                 3.9060
 Frc consts  --      1.3601                 3.6483                 5.3209
 IR Inten    --     13.0059                 8.0924               214.8842

                     43                     44                     45
                      A                      A                      A
 Frequencies --   1585.7163              1674.5659              1703.8259
 Red. masses --      2.7398                 4.5593                 9.0114
 Frc consts  --      4.0590                 7.5327                15.4132
 IR Inten    --     83.2389               151.5428               324.5052

                     46                     47                     48
                      A                      A                      A
 Frequencies --   1720.7487              3092.9978              3119.2248
 Red. masses --      5.2413                 1.0354                 1.0720
 Frc consts  --      9.1437                 5.8362                 6.1455
 IR Inten    --    779.2903                 3.0995               530.2007

                     49                     50                     51
                      A                      A                      A
 Frequencies --   3168.3271              3195.8292              3224.0440
 Red. masses --      1.1000                 1.1069                 1.0927
 Frc consts  --      6.5061                 6.6607                 6.6919
 IR Inten    --      2.6231                13.3533                 1.9777

                     52                     53                     54
                      A                      A                      A
 Frequencies --   3228.2048              3865.3066              3866.5702
 Red. masses --      1.0928                 1.0662                 1.0662
 Frc consts  --      6.7099                 9.3854                 9.3915
 IR Inten    --      2.9208               110.2631                78.0571

 - Thermochemistry -
 -------------------
 Temperature   298.150 Kelvin.  Pressure   1.00000 Atm.
 Atom     1 has atomic number  6 and mass  12.00000

 Molecular mass:   168.04226 amu.
 Principal axes and moments of inertia in atomic units:
                           1         2         3
     Eigenvalues --  1159.070822344.550453492.59848
           X            0.99941  -0.03437   0.00002
           Y            0.03437   0.99941   0.00003
           Z           -0.00002  -0.00003   1.00000
 This molecule is an asymmetric top.
 Rotational symmetry number  1.
 Warning -- assumption of classical behavior for rotation
           may cause significant error
 Rotational temperatures (Kelvin)      0.07473     0.03694     0.02480
 Rotational constants (GHZ):           1.55706     0.76976     0.51673
 Zero-point vibrational energy     402227.9 (Joules/Mol)
                                   96.13476 (Kcal/Mol)
 Warning -- explicit consideration of  16 degrees of freedom as
           vibrations may cause significant error
 Vibrational temperatures:     86.56   157.20   290.29   324.48   333.58
          (Kelvin)            386.77   416.29   492.89   525.96   553.19
                              564.03   581.69   631.52   772.60   839.38
                              848.35   894.17   918.24   939.77   941.70
                             1041.82  1072.35  1175.08  1194.10  1380.31
                             1425.35  1508.50  1525.55  1585.35  1605.27
                             1708.82  1746.68  1786.73  1851.17  1910.05
                             1958.08  2038.70  2051.65  2104.90  2137.49
                             2138.97  2187.73  2281.49  2409.32  2451.42
                             2475.77  4450.13  4487.86  4558.51  4598.08
                             4638.67  4644.66  5561.31  5563.13

 Zero-point correction=                           0.153201 (Hartree/Particle)
 Thermal correction to Energy=                    0.163726
 Thermal correction to Enthalpy=                  0.164671
 Thermal correction to Gibbs Free Energy=         0.117425
 Sum of electronic and zero-point Energies=           -610.210211
 Sum of electronic and thermal Energies=              -610.199685
 Sum of electronic and thermal Enthalpies=            -610.198741
 Sum of electronic and thermal Free Energies=         -610.245987

                     E (Thermal)             CV                S
                      KCal/Mol        Cal/Mol-Kelvin    Cal/Mol-Kelvin
 Total                  102.740             41.199             99.437
 Electronic               0.000              0.000              0.000
 Translational            0.889              2.981             41.265
 Rotational               0.889              2.981             30.630
 Vibrational            100.962             35.237             27.543
 Vibration     1          0.597              1.973              4.452
 Vibration     2          0.606              1.942              3.282
 Vibration     3          0.639              1.837              2.117
 Vibration     4          0.650              1.802              1.914
 Vibration     5          0.653              1.792              1.865
 Vibration     6          0.673              1.731              1.604
 Vibration     7          0.686              1.694              1.478
 Vibration     8          0.722              1.590              1.200
 Vibration     9          0.739              1.543              1.098
 Vibration    10          0.753              1.503              1.021
 Vibration    11          0.759              1.487              0.992
 Vibration    12          0.769              1.461              0.947
 Vibration    13          0.799              1.385              0.830
 Vibration    14          0.892              1.168              0.572
 Vibration    15          0.940              1.067              0.479
 Vibration    16          0.947              1.054              0.468

 Optimization completed.
    -- Stationary point found.
 Normal termination of Gaussian 09 at Sun Jun 16 15:59:00 2024.
