 Gaussian 09, Revision E.01,
 Gaussian 09:  ES64L-G09RevE.01 30-Nov-2015

 --------------------------------------
 # opt freq pbepbe/6-31+g(d,p) em=gd3bj
 --------------------------------------

 ----------
 [No Title]
 ----------
 Symbolic Z-matrix:
 Charge =  0 Multiplicity = 1

 SCF Done:  E(RPBE-PBE) =  -609.947974778     A.U. after   16 cycles
 SCF Done:  E(RPBE-PBE) =  -609.949090343     A.U. after   14 cycles
 SCF Done:  E(RPBE-PBE) =  -609.949130602     A.U. after   12 cycles
 SCF Done:  E(RPBE-PBE) =  -609.949187584     A.U. after   14 cycles
 SCF Done:  E(RPBE-PBE) =  -609.949286754     A.U. after   13 cycles
 SCF Done:  E(RPBE-PBE) =  -609.949305232     A.U. after   11 cycles
 SCF Done:  E(RPBE-PBE) =  -609.949254251     A.U. after   12 cycles
 SCF Done:  E(RPBE-PBE) =  -609.949311670     A.U. after   12 cycles
 SCF Done:  E(RPBE-PBE) =  -609.949312503     A.U. after   10 cycles
 Optimization completed.
    -- Stationary point found.
 Normal termination of Gaussian 09 at Thu Jun 20 15:27:46 2024.

 ----------------------------------------------------------------------
 #N Geom=AllCheck Guess=TCheck SCRF=Check GenChk RPBEPBE/6-31+G(d,p) Fr
 eq
 ----------------------------------------------------------------------

 Structure from the checkpoint file:  "pbeTHAPgd3.chk"
 ----------
 [No Title]
 ----------
 Charge =  0 Multiplicity = 1

                         Standard orientation:
 ---------------------------------------------------------------------
 Center     Atomic      Atomic             Coordinates (Angstroms)
 Number     Number       Type             X           Y           Z
 ---------------------------------------------------------------------
      1          6           0       -1.541299    1.251107   -0.000181
      2          6           0       -2.271411    0.046014   -0.000269
      3          6           0       -1.627314   -1.193308   -0.000173
      4          6           0       -0.221785   -1.239288    0.000051
      5          6           0        0.571615   -0.029389    0.000284
      6          6           0       -0.147803    1.206570    0.000069
      7          8           0        0.573669    2.373631    0.000202
      8          6           0        2.026840   -0.158791    0.000781
      9          6           0        2.959927    1.027485   -0.000047
     10          8           0        2.556354   -1.310867    0.000346
     11          8           0        0.366132   -2.438427   -0.000132
     12          8           0       -3.633141    0.165895   -0.000527
     13          1           0       -2.080891    2.202504   -0.000294
     14          1           0       -2.181144   -2.136188   -0.000326
     15          1           0       -0.054253    3.120093    0.000069
     16          1           0        2.787675    1.666309    0.880663
     17          1           0        3.990884    0.648617   -0.000150
     18          1           0        2.787226    1.665549   -0.881225
     19          1           0        1.382893   -2.225338   -0.000342
     20          1           0       -4.029113   -0.725797   -0.000600
 ---------------------------------------------------------------------

 SCF Done:  E(RPBE-PBE) =  -609.949312503     A.U. after    1 cycles

 The electronic state is 1-A.
 Alpha  occ. eigenvalues --  -18.84028 -18.83829 -18.79785 -18.78196  -9.99978
 Alpha  occ. eigenvalues --   -9.99599  -9.99232  -9.98624  -9.92598  -9.91730
 Alpha  occ. eigenvalues --   -9.91144  -9.90376  -1.00356  -0.99985  -0.98200
 Alpha  occ. eigenvalues --   -0.94468  -0.78500  -0.71167  -0.68528  -0.66589
 Alpha  occ. eigenvalues --   -0.59987  -0.58036  -0.54192  -0.52394  -0.47317
 Alpha  occ. eigenvalues --   -0.46908  -0.45446  -0.42866  -0.41171  -0.39949
 Alpha  occ. eigenvalues --   -0.38686  -0.38507  -0.37070  -0.36637  -0.36213
 Alpha  occ. eigenvalues --   -0.35397  -0.34013  -0.32531  -0.31858  -0.31776
 Alpha  occ. eigenvalues --   -0.26380  -0.22348  -0.21777  -0.20406
 Alpha virt. eigenvalues --   -0.08947  -0.03609  -0.03230  -0.02638  -0.00895
 Alpha virt. eigenvalues --    0.00313   0.02094   0.02494   0.02717   0.03403
 Alpha virt. eigenvalues --    0.04772   0.05352   0.06029   0.06153   0.07613

 Mulliken charges:
               1
     1  C    1.069445
     2  C   -0.867732
     3  C    1.020324
     4  C   -1.382152
     5  C    2.495380
     6  C   -2.560473
     7  O   -0.487421
     8  C    0.652271
     9  C   -0.566801
    10  O   -0.442413
    11  O   -0.490613
    12  O   -0.467375
    13  H    0.130255
    14  H    0.136160
    15  H    0.378292
    16  H    0.201572
    17  H    0.190920
    18  H    0.201609
    19  H    0.428846
    20  H    0.359904
 Sum of Mulliken charges =   0.00000

 Dipole moment (field-independent basis, Debye):
    X=             -2.4127    Y=              3.1261    Z=             -0.0010  Tot=              3.9489
 Quadrupole moment (field-independent basis, Debye-Ang):
   XX=            -66.6664   YY=            -65.9797   ZZ=            -72.1833
   XY=              8.7486   XZ=             -0.0006   YZ=              0.0016

  Exact polarizability: 167.191  -1.356 129.633   0.014   0.000  62.865
 Approx polarizability: 333.486 -25.399 273.453   0.036   0.003 105.023

                      1                      2                      3
                      A                      A                      A
 Frequencies --     60.8066               113.6712               186.5818
 Red. masses --      3.9930                 8.3728                 1.7327
 Frc consts  --      0.0087                 0.0637                 0.0355
 IR Inten    --      0.9023                 0.2915                 3.2810

                      4                      5                      6
                      A                      A                      A
 Frequencies --    209.2249               216.6846               259.3469
 Red. masses --      1.9026                 4.7380                 4.3756
 Frc consts  --      0.0491                 0.1311                 0.1734
 IR Inten    --      0.8497                 0.7210                10.9694

                      7                      8                      9
                      A                      A                      A
 Frequencies --    272.6267               329.9686               355.2876
 Red. masses --      4.6604                 5.7666                 4.8054
 Frc consts  --      0.2041                 0.3699                 0.3574
 IR Inten    --      2.1534                 9.1959                 0.8599

                     10                     11                     12
                      A                      A                      A
 Frequencies --    375.7976               389.3057               406.1586
 Red. masses --      5.2774                 1.1534                 1.1146
 Frc consts  --      0.4391                 0.1030                 0.1083
 IR Inten    --      6.2420                 3.6875               180.6237

                     13                     14                     15
                      A                      A                      A
 Frequencies --    433.0062               511.1773               558.5930
 Red. masses --      6.4172                 6.6980                 3.0297
 Frc consts  --      0.7089                 1.0312                 0.5570
 IR Inten    --      5.3000                 8.6608                 0.0440

                     16                     17                     18
                      A                      A                      A
 Frequencies --    562.7991               598.1929               599.5775
 Red. masses --      6.1103                 7.8063                 3.0749
 Frc consts  --      1.1403                 1.6458                 0.6513
 IR Inten    --     19.7558                 7.0603                 1.5829

                     19                     20                     21
                      A                      A                      A
 Frequencies --    615.1834               626.6478               697.4490
 Red. masses --      2.8743                 3.9732                 5.5101
 Frc consts  --      0.6409                 0.9193                 1.5792
 IR Inten    --     13.1372                19.2857                 0.0764

                     22                     23                     24
                      A                      A                      A
 Frequencies --    699.4398               751.5304               767.6547
 Red. masses --      3.9822                 1.7000                 1.6638
 Frc consts  --      1.1478                 0.5657                 0.5777
 IR Inten    --     10.8681                39.4997                39.2349

                     25                     26                     27
                      A                      A                      A
 Frequencies --    949.3959              1002.6574              1004.8695
 Red. masses --      2.0548                 1.7307                 3.2879
 Frc consts  --      1.0912                 1.0251                 1.9561
 IR Inten    --     40.4740                15.9060                13.7789

                     28                     29                     30
                      A                      A                      A
 Frequencies --   1027.2453              1052.1501              1066.5814
 Red. masses --      1.0763                 2.6512                 4.3836
 Frc consts  --      0.6692                 1.7292                 2.9381
 IR Inten    --     59.2178                47.4936                59.6495

                     31                     32                     33
                      A                      A                      A
 Frequencies --   1148.7296              1172.0290              1199.7292
 Red. masses --      1.2946                 1.4183                 1.9330
 Frc consts  --      1.0065                 1.1479                 1.6392
 IR Inten    --    174.3272                18.0675               147.7715

                     34                     35                     36
                      A                      A                      A
 Frequencies --   1238.0655              1293.1539              1311.8032
 Red. masses --      1.6944                 2.8737                 2.5383
 Frc consts  --      1.5302                 2.8313                 2.5736
 IR Inten    --    180.7952                38.7827               118.0727

                     37                     38                     39
                      A                      A                      A
 Frequencies --   1354.4401              1395.5572              1400.2287
 Red. masses --      1.7880                 4.2228                 1.3841
 Frc consts  --      1.9326                 4.8456                 1.5989
 IR Inten    --    124.4265                21.5639                16.8758

                     40                     41                     42
                      A                      A                      A
 Frequencies --   1424.3725              1438.3890              1460.5216
 Red. masses --      1.0452                 3.0719                 3.4759
 Frc consts  --      1.2494                 3.7447                 4.3685
 IR Inten    --     13.2948                25.3431               117.1533

                     43                     44                     45
                      A                      A                      A
 Frequencies --   1523.5300              1595.2167              1605.4822
 Red. masses --      2.7844                 5.8508                 3.7040
 Frc consts  --      3.8079                 8.7722                 5.6251
 IR Inten    --    149.4272               209.7220               224.4445

                     46                     47                     48
                      A                      A                      A
 Frequencies --   1646.5431              2590.4918              2998.3267
 Red. masses --      3.7430                 1.0833                 1.0354
 Frc consts  --      5.9788                 4.2833                 5.4842
 IR Inten    --    643.5468               588.7340                 1.1050

                     49                     50                     51
                      A                      A                      A
 Frequencies --   3072.0756              3108.9465              3130.5167
 Red. masses --      1.0985                 1.1050                 1.0913
 Frc consts  --      6.1082                 6.2925                 6.3011
 IR Inten    --      2.6782                11.1791                 3.6377

                     52                     53                     54
                      A                      A                      A
 Frequencies --   3136.0452              3706.5195              3708.1638
 Red. masses --      1.0915                 1.0658                 1.0659
 Frc consts  --      6.3247                 8.6272                 8.6352
 IR Inten    --      3.8546                59.2006                70.9819

 - Thermochemistry -
 -------------------
 Temperature   298.150 Kelvin.  Pressure   1.00000 Atm.
 Atom     1 has atomic number  6 and mass  12.00000

 Molecular mass:   168.04226 amu.
 Principal axes and moments of inertia in atomic units:
                           1         2         3
     Eigenvalues --  1177.824462376.725893543.37808
           X            0.99940   0.03453  -0.00012
           Y           -0.03453   0.99940  -0.00001
           Z            0.00012   0.00002   1.00000
 This molecule is an asymmetric top.
 Rotational symmetry number  1.
 Warning -- assumption of classical behavior for rotation
           may cause significant error
 Rotational temperatures (Kelvin)      0.07354     0.03644     0.02444
 Rotational constants (GHZ):           1.53227     0.75934     0.50933
 Zero-point vibrational energy     384949.2 (Joules/Mol)
                                   92.00508 (Kcal/Mol)
 Warning -- explicit consideration of  19 degrees of freedom as
           vibrations may cause significant error
 Vibrational temperatures:     87.49   163.55   268.45   301.03   311.76
          (Kelvin)            373.14   392.25   474.75   511.18   540.69
                              560.12   584.37   623.00   735.47   803.69
                              809.74   860.67   862.66   885.11   901.61
                             1003.47  1006.34  1081.28  1104.48  1365.97
                             1442.60  1445.78  1477.98  1513.81  1534.57
                             1652.76  1686.29  1726.14  1781.30  1860.56
                             1887.39  1948.73  2007.89  2014.61  2049.35
                             2069.52  2101.36  2192.02  2295.16  2309.93
                             2369.01  3727.14  4313.92  4420.03  4473.07
                             4504.11  4512.06  5332.85  5335.21

 Zero-point correction=                           0.146619 (Hartree/Particle)
 Thermal correction to Energy=                    0.157508
 Thermal correction to Enthalpy=                  0.158452
 Thermal correction to Gibbs Free Energy=         0.110571
 Sum of electronic and zero-point Energies=           -609.802693
 Sum of electronic and thermal Energies=              -609.791805
 Sum of electronic and thermal Enthalpies=            -609.790860
 Sum of electronic and thermal Free Energies=         -609.838742

                     E (Thermal)             CV                S
                      KCal/Mol        Cal/Mol-Kelvin    Cal/Mol-Kelvin
 Total                   98.838             42.641            100.775
 Electronic               0.000              0.000              0.000
 Translational            0.889              2.981             41.265
 Rotational               0.889              2.981             30.673
 Vibrational             97.060             36.680             28.836
 Vibration     1          0.597              1.973              4.431
 Vibration     2          0.607              1.938              3.205
 Vibration     3          0.632              1.858              2.262
 Vibration     4          0.642              1.827              2.050
 Vibration     5          0.646              1.816              1.987
 Vibration     6          0.668              1.747              1.666
 Vibration     7          0.676              1.724              1.580
 Vibration     8          0.713              1.616              1.260
 Vibration     9          0.731              1.564              1.143
 Vibration    10          0.747              1.522              1.056
 Vibration    11          0.757              1.493              1.003
 Vibration    12          0.771              1.457              0.940
 Vibration    13          0.794              1.398              0.849
 Vibration    14          0.866              1.225              0.631
 Vibration    15          0.914              1.121              0.527
 Vibration    16          0.919              1.112              0.518
 Vibration    17          0.956              1.036              0.453
 Vibration    18          0.958              1.033              0.450
 Vibration    19          0.975              1.000              0.424

 Optimization completed.
    -- Stationary point found.
 Normal termination of Gaussian 09 at Thu Jun 20 15:29:36 2024.
