 Gaussian 09, Revision E.01,
 Gaussian 09:  ES64L-G09RevE.01 30-Nov-2015

 --------------------------------------
 # opt freq pbepbe/6-31+g(d,p) em=gd3bj
 --------------------------------------

 ----------
 [No Title]
 ----------
 Symbolic Z-matrix:
 Charge =  1 Multiplicity = 1

 SCF Done:  E(RPBE-PBE) =  -610.299627494     A.U. after   17 cycles
 SCF Done:  E(RPBE-PBE) =  -610.300573472     A.U. after   12 cycles
 SCF Done:  E(RPBE-PBE) =  -610.300593120     A.U. after   12 cycles
 SCF Done:  E(RPBE-PBE) =  -610.300587255     A.U. after   11 cycles
 SCF Done:  E(RPBE-PBE) =  -610.300603394     A.U. after   11 cycles
 SCF Done:  E(RPBE-PBE) =  -610.300603981     A.U. after   10 cycles
 Optimization completed.
    -- Stationary point found.
 Normal termination of Gaussian 09 at Thu Jun 20 16:50:36 2024.

 ----------------------------------------------------------------------
 #N Geom=AllCheck Guess=TCheck SCRF=Check GenChk RPBEPBE/6-31+G(d,p) Fr
 eq
 ----------------------------------------------------------------------

 Structure from the checkpoint file:  "pbeTHAPyang.chk"
 ----------
 [No Title]
 ----------
 Charge =  1 Multiplicity = 1

                         Standard orientation:
 ---------------------------------------------------------------------
 Center     Atomic      Atomic             Coordinates (Angstroms)
 Number     Number       Type             X           Y           Z
 ---------------------------------------------------------------------
      1          6           0        1.558647   -1.268884   -0.000006
      2          6           0        2.296011   -0.072115   -0.000114
      3          6           0        1.641551    1.182616   -0.000180
      4          6           0        0.257783    1.215155   -0.000134
      5          6           0       -0.562017    0.022777    0.000028
      6          6           0        0.168283   -1.230623    0.000051
      7          8           0       -0.558712   -2.368134    0.000078
      8          6           0       -1.990678    0.078870    0.000164
      9          6           0       -2.917003   -1.086635    0.000491
     10          8           0       -2.643068    1.222704   -0.000021
     11          8           0       -0.415837    2.407280   -0.000197
     12          8           0        3.632366   -0.195792   -0.000149
     13          1           0        2.098822   -2.219267   -0.000006
     14          1           0        2.218534    2.112693   -0.000263
     15          1           0        0.032939   -3.146978    0.000140
     16          1           0       -2.741349   -1.726463   -0.879325
     17          1           0       -2.740753   -1.726515    0.880136
     18          1           0       -3.950557   -0.717499    0.000815
     19          1           0       -2.013657    1.995710   -0.000261
     20          1           0        0.184201    3.178520   -0.000455
     21          1           0        4.078358    0.674373   -0.000263
 ---------------------------------------------------------------------

 SCF Done:  E(RPBE-PBE) =  -610.300603981     A.U. after    2 cycles

 The electronic state is 1-A.
 Alpha  occ. eigenvalues --  -19.01532 -19.00126 -18.99000 -18.98821 -10.18140
 Alpha  occ. eigenvalues --  -10.16595 -10.15782 -10.15536 -10.10183 -10.08187
 Alpha  occ. eigenvalues --  -10.06994 -10.05117  -1.18676  -1.16403  -1.15823
 Alpha  occ. eigenvalues --   -1.15487  -0.95332  -0.88781  -0.85255  -0.83836
 Alpha  occ. eigenvalues --   -0.77122  -0.75341  -0.72860  -0.70530  -0.68188
 Alpha  occ. eigenvalues --   -0.66037  -0.62653  -0.60608  -0.57933  -0.56925
 Alpha  occ. eigenvalues --   -0.55742  -0.55690  -0.54710  -0.53130  -0.52346
 Alpha  occ. eigenvalues --   -0.51593  -0.50975  -0.49008  -0.48783  -0.47295
 Alpha  occ. eigenvalues --   -0.46675  -0.43221  -0.38374  -0.37184
 Alpha virt. eigenvalues --   -0.26990  -0.19657  -0.17205  -0.16866  -0.14904
 Alpha virt. eigenvalues --   -0.14443  -0.12788  -0.10389  -0.09642  -0.09282
 Alpha virt. eigenvalues --   -0.08908  -0.07093  -0.06342  -0.06194  -0.05494

 Mulliken charges:
               1
     1  C    1.175596
     2  C   -0.998737
     3  C    0.906952
     4  C   -1.194986
     5  C    2.522595
     6  C   -2.617258
     7  O   -0.461869
     8  C    0.608401
     9  C   -0.329428
    10  O   -0.326378
    11  O   -0.556967
    12  O   -0.410420
    13  H    0.172105
    14  H    0.150014
    15  H    0.408822
    16  H    0.236352
    17  H    0.236334
    18  H    0.222660
    19  H    0.448597
    20  H    0.426116
    21  H    0.381498
 Sum of Mulliken charges =   1.00000

 Dipole moment (field-independent basis, Debye):
    X=              1.8116    Y=              1.6350    Z=             -0.0006  Tot=              2.4403
 Quadrupole moment (field-independent basis, Debye-Ang):
   XX=            -42.3079   YY=            -36.0218   ZZ=            -69.8983
   XY=              8.8432   XZ=             -0.0028   YZ=             -0.0049

  Exact polarizability: 172.727   2.803 122.500  -0.007  -0.006  57.036
 Approx polarizability: 394.725  -7.547 246.658  -0.014  -0.012  95.553

                      1                      2                      3
                      A                      A                      A
 Frequencies --     54.9826                89.3435               186.7183
 Red. masses --      5.1054                 4.7969                 3.7170
 Frc consts  --      0.0091                 0.0226                 0.0764
 IR Inten    --      0.7945                 0.3207                 2.3793

                      4                      5                      6
                      A                      A                      A
 Frequencies --    199.5551               226.5596               257.6809
 Red. masses --      4.4818                 1.2409                 4.7492
 Frc consts  --      0.1052                 0.0375                 0.1858
 IR Inten    --      5.4286                 0.5878                 1.0069

                      7                      8                      9
                      A                      A                      A
 Frequencies --    268.9246               328.3495               338.9762
 Red. masses --      2.6515                 1.2587                 5.5210
 Frc consts  --      0.1130                 0.0800                 0.3738
 IR Inten    --     46.0518                85.0251                11.7971

                     10                     11                     12
                      A                      A                      A
 Frequencies --    361.4665               387.0175               415.1764
 Red. masses --      4.9405                 4.8443                 5.7212
 Frc consts  --      0.3803                 0.4275                 0.5810
 IR Inten    --      3.8571                 5.8066                 4.1765

                     13                     14                     15
                      A                      A                      A
 Frequencies --    452.0326               472.2322               509.3307
 Red. masses --      1.1343                 1.1206                 7.0185
 Frc consts  --      0.1366                 0.1472                 1.0727
 IR Inten    --     28.8299               161.7997                 3.3912

                     16                     17                     18
                      A                      A                      A
 Frequencies --    526.4919               546.6915               593.3684
 Red. masses --      3.9805                 2.8211                 8.0396
 Frc consts  --      0.6501                 0.4968                 1.6678
 IR Inten    --      6.7820                 0.2008                 0.4361

                     19                     20                     21
                      A                      A                      A
 Frequencies --    598.4853               624.0343               624.4924
 Red. masses --      3.3049                 3.4632                 2.9553
 Frc consts  --      0.6975                 0.7946                 0.6791
 IR Inten    --     12.7164                29.5378                27.5681

                     22                     23                     24
                      A                      A                      A
 Frequencies --    697.7245               701.0335               764.7088
 Red. masses --      4.1894                 5.6401                 1.6426
 Frc consts  --      1.2016                 1.6331                 0.5659
 IR Inten    --      4.6408                 2.7106                49.5001

                     25                     26                     27
                      A                      A                      A
 Frequencies --    800.8199               810.3302               960.8414
 Red. masses --      1.5300                 1.2321                 1.9756
 Frc consts  --      0.5781                 0.4767                 1.0746
 IR Inten    --     51.5320                66.3360                35.2342

                     28                     29                     30
                      A                      A                      A
 Frequencies --   1008.7667              1009.9644              1050.7214
 Red. masses --      1.6507                 3.2609                 2.9870
 Frc consts  --      0.9897                 1.9597                 1.9429
 IR Inten    --      0.1345                 0.0685                79.6585

                     31                     32                     33
                      A                      A                      A
 Frequencies --   1061.2811              1147.1312              1159.5595
 Red. masses --      2.6980                 1.2838                 1.2051
 Frc consts  --      1.7904                 0.9954                 0.9546
 IR Inten    --     51.0875                73.7690                99.9776

                     34                     35                     36
                      A                      A                      A
 Frequencies --   1190.6168              1213.2060              1253.9495
 Red. masses --      1.6046                 2.2151                 1.9780
 Frc consts  --      1.3402                 1.9210                 1.8324
 IR Inten    --    117.4682                35.3636                76.2690

                     37                     38                     39
                      A                      A                      A
 Frequencies --   1293.7706              1344.0903              1355.2850
 Red. masses --      1.9796                 1.1853                 2.6441
 Frc consts  --      1.9523                 1.2616                 2.8615
 IR Inten    --    156.0186                70.0240               164.3392

                     40                     41                     42
                      A                      A                      A
 Frequencies --   1391.6470              1410.4554              1422.0111
 Red. masses --      1.7299                 1.0428                 4.3592
 Frc consts  --      1.9739                 1.2223                 5.1935
 IR Inten    --      6.8397                19.3849                16.8947

                     43                     44                     45
                      A                      A                      A
 Frequencies --   1452.0825              1479.9628              1507.4108
 Red. masses --      2.5806                 2.6642                 4.9777
 Frc consts  --      3.2060                 3.4380                 6.6641
 IR Inten    --    271.1310               242.4298               194.1207

                     46                     47                     48
                      A                      A                      A
 Frequencies --   1541.0161              1571.7548              1648.9936
 Red. masses --      3.3629                 5.6364                 7.2288
 Frc consts  --      4.7052                 8.2039                11.5812
 IR Inten    --    218.0869               174.6818               718.7845

                     49                     50                     51
                      A                      A                      A
 Frequencies --   3004.4500              3071.2441              3122.9329
 Red. masses --      1.0371                 1.0975                 1.1050
 Frc consts  --      5.5154                 6.0991                 6.3497
 IR Inten    --     17.8136                 1.9332                 5.7071

                     52                     53                     54
                      A                      A                      A
 Frequencies --   3125.1790              3146.3480              3306.6257
 Red. masses --      1.0926                 1.0928                 1.0672
 Frc consts  --      6.2875                 6.3738                 6.8749
 IR Inten    --      0.0816                 3.1049               249.3376

                     55                     56                     57
                      A                      A                      A
 Frequencies --   3679.0231              3686.4261              3693.0167
 Red. masses --      1.0663                 1.0667                 1.0669
 Frc consts  --      8.5035                 8.5406                 8.5730
 IR Inten    --    146.1493               139.5024               173.2402

 - Thermochemistry -
 -------------------
 Temperature   298.150 Kelvin.  Pressure   1.00000 Atm.
 Atom     1 has atomic number  6 and mass  12.00000

 Molecular mass:   169.05008 amu.
 Principal axes and moments of inertia in atomic units:
                           1         2         3
     Eigenvalues --  1196.329282403.083163588.27097
           X            0.99942   0.03393   0.00006
           Y           -0.03393   0.99942   0.00008
           Z           -0.00006  -0.00009   1.00000
 This molecule is an asymmetric top.
 Rotational symmetry number  1.
 Warning -- assumption of classical behavior for rotation
           may cause significant error
 Rotational temperatures (Kelvin)      0.07240     0.03604     0.02414
 Rotational constants (GHZ):           1.50857     0.75101     0.50296
 Zero-point vibrational energy     419568.0 (Joules/Mol)
                                  100.27916 (Kcal/Mol)
 Warning -- explicit consideration of  19 degrees of freedom as
           vibrations may cause significant error
 Vibrational temperatures:     79.11   128.55   268.65   287.11   325.97
          (Kelvin)            370.74   386.92   472.42   487.71   520.07
                              556.83   597.35   650.37   679.44   732.81
                              757.50   786.57   853.72   861.09   897.85
                              898.50  1003.87  1008.63  1100.24  1152.20
                             1165.88  1382.43  1451.39  1453.11  1511.75
                             1526.94  1650.46  1668.35  1713.03  1745.53
                             1804.15  1861.45  1933.84  1949.95  2002.27
                             2029.33  2045.95  2089.22  2129.33  2168.83
                             2217.18  2261.40  2372.53  4322.73  4418.83
                             4493.20  4496.43  4526.89  4757.49  5293.29
                             5303.94  5313.42

 Zero-point correction=                           0.159805 (Hartree/Particle)
 Thermal correction to Energy=                    0.171090
 Thermal correction to Enthalpy=                  0.172034
 Thermal correction to Gibbs Free Energy=         0.123314
 Sum of electronic and zero-point Energies=           -610.140799
 Sum of electronic and thermal Energies=              -610.129514
 Sum of electronic and thermal Enthalpies=            -610.128570
 Sum of electronic and thermal Free Energies=         -610.177290

                     E (Thermal)             CV                S
                      KCal/Mol        Cal/Mol-Kelvin    Cal/Mol-Kelvin
 Total                  107.361             44.481            102.540
 Electronic               0.000              0.000              0.000
 Translational            0.889              2.981             41.283
 Rotational               0.889              2.981             30.712
 Vibrational            105.583             38.519             30.544
 Vibration     1          0.596              1.976              4.630
 Vibration     2          0.602              1.957              3.674
 Vibration     3          0.632              1.858              2.260
 Vibration     4          0.638              1.841              2.137
 Vibration     5          0.650              1.801              1.906
 Vibration     6          0.667              1.750              1.677
 Vibration     7          0.673              1.730              1.603
 Vibration     8          0.712              1.619              1.268
 Vibration     9          0.719              1.598              1.217
 Vibration    10          0.736              1.552              1.116
 Vibration    11          0.755              1.498              1.012
 Vibration    12          0.779              1.437              0.909
 Vibration    13          0.811              1.356              0.790
 Vibration    14          0.829              1.312              0.731
 Vibration    15          0.864              1.229              0.635
 Vibration    16          0.881              1.191              0.595
 Vibration    17          0.902              1.147              0.551
 Vibration    18          0.951              1.046              0.461
 Vibration    19          0.956              1.035              0.452

 Optimization completed.
    -- Stationary point found.
 Normal termination of Gaussian 09 at Thu Jun 20 16:52:28 2024.
