 Gaussian 09, Revision E.01,
 Gaussian 09:  ES64L-G09RevE.01 30-Nov-2015

 -----------------------------------------------------
 # opt freq B2PLYP/6-31+g(d,p) EmpiricalDispersion=GD3
 -----------------------------------------------------

 ----------
 [No Title]
 ----------
 Symbolic Z-matrix:
 Charge =  0 Multiplicity = 1

 SCF Done:  E(RB2PLYP) =  -686.662855064     A.U. after   15 cycles
 E2(B2PLYP) =    -0.6861054551D+00 E(B2PLYP) =    -0.68734896051913D+03
 SCF Done:  E(RB2PLYP) =  -686.662294332     A.U. after   12 cycles
 E2(B2PLYP) =    -0.6869565969D+00 E(B2PLYP) =    -0.68734925092860D+03
 SCF Done:  E(RB2PLYP) =  -686.662205563     A.U. after   11 cycles
 E2(B2PLYP) =    -0.6870680739D+00 E(B2PLYP) =    -0.68734927363683D+03
 SCF Done:  E(RB2PLYP) =  -686.662159643     A.U. after   11 cycles
 E2(B2PLYP) =    -0.6871074354D+00 E(B2PLYP) =    -0.68734926707851D+03
 SCF Done:  E(RB2PLYP) =  -686.662189195     A.U. after   10 cycles
 E2(B2PLYP) =    -0.6870868290D+00 E(B2PLYP) =    -0.68734927602394D+03
 SCF Done:  E(RB2PLYP) =  -686.662197889     A.U. after    9 cycles
 E2(B2PLYP) =    -0.6870783357D+00 E(B2PLYP) =    -0.68734927622465D+03
 SCF Done:  E(RB2PLYP) =  -686.662202118     A.U. after    9 cycles
 E2(B2PLYP) =    -0.6870742553D+00 E(B2PLYP) =    -0.68734927637369D+03
 SCF Done:  E(RB2PLYP) =  -686.631743518     A.U. after   15 cycles
 E2(B2PLYP) =    -0.6945165489D+00 E(B2PLYP) =    -0.68732626006655D+03
 SCF Done:  E(RB2PLYP) =  -686.661990638     A.U. after   16 cycles
 E2(B2PLYP) =    -0.6872558521D+00 E(B2PLYP) =    -0.68734924648982D+03
 SCF Done:  E(RB2PLYP) =  -686.662233493     A.U. after   13 cycles
 E2(B2PLYP) =    -0.6871938860D+00 E(B2PLYP) =    -0.68734942737916D+03
 E2(B2PLYP) =    -0.6884999955D+00 E(B2PLYP) =    -0.68734600259401D+03
 E2(B2PLYP) =    -0.6848147789D+00 E(B2PLYP) =    -0.68734260665485D+03
 E2(B2PLYP) =    -0.6838433120D+00 E(B2PLYP) =    -0.68733697448087D+03
 E2(B2PLYP) =    -0.6869204780D+00 E(B2PLYP) =    -0.68734949627340D+03
 E2(B2PLYP) =    -0.6903413221D+00 E(B2PLYP) =    -0.68734390038494D+03
 E2(B2PLYP) =    -0.6870783241D+00 E(B2PLYP) =    -0.68734927093228D+03
 E2(B2PLYP) =    -0.6869821773D+00 E(B2PLYP) =    -0.68734968376349D+03
 E2(B2PLYP) =    -0.6873617996D+00 E(B2PLYP) =    -0.68734958643183D+03
 E2(B2PLYP) =    -0.7099520872D+00 E(B2PLYP) =    -0.68699825608635D+03
 E2(B2PLYP) =    -0.6877074822D+00 E(B2PLYP) =    -0.68734952846033D+03
 SCF Done:  E(RB2PLYP) =  -686.662515287     A.U. after   12 cycles
 E2(B2PLYP) =    -0.6872437717D+00 E(B2PLYP) =    -0.68734975905854D+03
 SCF Done:  E(RB2PLYP) =  -686.662497194     A.U. after   14 cycles
 E2(B2PLYP) =    -0.6874036794D+00 E(B2PLYP) =    -0.68734990087299D+03
 SCF Done:  E(RB2PLYP) =  -686.662718133     A.U. after   13 cycles
 E2(B2PLYP) =    -0.6871711343D+00 E(B2PLYP) =    -0.68734988926693D+03
 SCF Done:  E(RB2PLYP) =  -686.662668260     A.U. after   12 cycles
 E2(B2PLYP) =    -0.6872631133D+00 E(B2PLYP) =    -0.68734993137361D+03
 SCF Done:  E(RB2PLYP) =  -686.662643517     A.U. after   12 cycles
 E2(B2PLYP) =    -0.6872982552D+00 E(B2PLYP) =    -0.68734994177204D+03
 SCF Done:  E(RB2PLYP) =  -686.662641066     A.U. after   13 cycles
 E2(B2PLYP) =    -0.6873059868D+00 E(B2PLYP) =    -0.68734994705274D+03
 SCF Done:  E(RB2PLYP) =  -686.662628174     A.U. after   12 cycles
 E2(B2PLYP) =    -0.6873200739D+00 E(B2PLYP) =    -0.68734994824775D+03
 SCF Done:  E(RB2PLYP) =  -686.662627794     A.U. after   11 cycles
 E2(B2PLYP) =    -0.6873208995D+00 E(B2PLYP) =    -0.68734994869364D+03
 SCF Done:  E(RB2PLYP) =  -686.662630270     A.U. after   10 cycles
 E2(B2PLYP) =    -0.6873185164D+00 E(B2PLYP) =    -0.68734994878600D+03
 Optimization completed.
    -- Stationary point found.
 Normal termination of Gaussian 09 at Thu Dec 19 01:17:28 2024.

 ----------------------------------------------------------------------
 #N Geom=AllCheck Guess=TCheck SCRF=Check GenChk RB2PLYP(FC)/6-31+G(d,p
 ) Freq
 ----------------------------------------------------------------------

 Structure from the checkpoint file:  "B2PLYPD3FA.chk"
 ----------
 [No Title]
 ----------
 Charge =  0 Multiplicity = 1

                         Standard orientation:
 ---------------------------------------------------------------------
 Center     Atomic      Atomic             Coordinates (Angstroms)
 Number     Number       Type             X           Y           Z
 ---------------------------------------------------------------------
      1          6           0        1.469955   -2.007811   -0.142834
      2          6           0        2.494385   -1.069855   -0.036370
      3          6           0        2.181245    0.303154    0.025526
      4          6           0        0.854973    0.718179   -0.014388
      5          6           0       -0.188260   -0.228571   -0.108944
      6          6           0        0.140457   -1.591944   -0.182041
      7          8           0        3.789217   -1.486094   -0.003368
      8          6           0       -1.567618    0.256832   -0.128682
      9          6           0       -2.684650   -0.470486    0.088264
     10          8           0        3.281979    1.118472    0.122732
     11          6           0        3.066243    2.527428    0.197115
     12          6           0       -4.060781    0.075219    0.101252
     13          8           0       -4.978850   -0.480641    0.670643
     14          8           0       -4.287375    1.260422   -0.544312
     15          1           0        1.733403   -3.056456   -0.202897
     16          1           0        0.609623    1.771541    0.037530
     17          1           0       -0.640390   -2.335164   -0.283826
     18          1           0        4.357205   -0.703947    0.071076
     19          1           0       -1.666811    1.328873   -0.294699
     20          1           0       -2.636475   -1.518073    0.358163
     21          1           0        4.054886    2.973729    0.269722
     22          1           0        2.562090    2.891127   -0.702442
     23          1           0        2.478788    2.784082    1.082863
     24          1           0       -3.527789    1.494160   -1.094441
 ---------------------------------------------------------------------

 SCF Done:  E(RB2PLYP) =  -686.662630270     A.U. after    1 cycles
 E2(B2PLYP) =    -0.6873185165D+00 E(B2PLYP) =    -0.68734994878606D+03
 E2(B2PLYP) =    -0.6873185165D+00 E(B2PLYP) =    -0.68734994878606D+03

 The electronic state is 1-A.
 Alpha  occ. eigenvalues --  -19.80927 -19.79945 -19.79499 -19.73605 -10.77640
 Alpha  occ. eigenvalues --  -10.71754 -10.71650 -10.70712 -10.68105 -10.66530
 Alpha  occ. eigenvalues --  -10.66283 -10.65877 -10.65528 -10.65080  -1.25022
 Alpha  occ. eigenvalues --   -1.24829  -1.21576  -1.16220  -1.00918  -0.94368
 Alpha  occ. eigenvalues --   -0.89309  -0.87863  -0.83052  -0.77313  -0.72906
 Alpha  occ. eigenvalues --   -0.71268  -0.68697  -0.66037  -0.63177  -0.61052
 Alpha  occ. eigenvalues --   -0.59301  -0.57674  -0.55987  -0.54327  -0.53357
 Alpha  occ. eigenvalues --   -0.52185  -0.52034  -0.50821  -0.50571  -0.47745
 Alpha  occ. eigenvalues --   -0.47744  -0.45601  -0.44312  -0.44072  -0.43187
 Alpha  occ. eigenvalues --   -0.42371  -0.39103  -0.35700  -0.34787  -0.30492
 Alpha  occ. eigenvalues --   -0.26332
 Alpha virt. eigenvalues --   -0.02904   0.01268   0.02318   0.02512   0.03181
 Alpha virt. eigenvalues --    0.03859   0.05032   0.05639   0.06664   0.06795
 Alpha virt. eigenvalues --    0.07550   0.07780   0.08393   0.09274   0.09747

 Mulliken charges:
               1
     1  C    0.424234
     2  C   -0.372573
     3  C    0.295635
     4  C   -0.078493
     5  C    0.312717
     6  C   -0.570469
     7  O   -0.561604
     8  C   -0.363489
     9  C    0.217544
    10  O   -0.498897
    11  C   -0.082217
    12  C    0.307884
    13  O   -0.487070
    14  O   -0.463972
    15  H    0.166372
    16  H    0.143558
    17  H    0.147816
    18  H    0.401629
    19  H    0.119145
    20  H    0.163884
    21  H    0.152185
    22  H    0.142428
    23  H    0.144542
    24  H    0.339208
 Sum of Mulliken charges =   0.00000

 Dipole moment (field-independent basis, Debye):
    X=              6.2165    Y=              3.3310    Z=             -1.5800  Tot=              7.2275
 Quadrupole moment (field-independent basis, Debye-Ang):
   XX=           -116.7591   YY=            -71.9736   ZZ=            -84.7804
   XY=              8.3502   XZ=              8.2502   YZ=             -0.0024

  Exact polarizability: 227.575   3.229 136.148  -4.248  -2.796  79.459
 Approx polarizability: 232.313   6.921 162.575  -7.000  -4.522  99.701

                      1                      2                      3
                      A                      A                      A
 Frequencies --     33.2987                60.9589                69.1309
 Red. masses --      5.6862                 5.5268                 3.8222
 Frc consts  --      0.0037                 0.0121                 0.0108
 IR Inten    --      3.4548                 3.5612                 3.5504

                      4                      5                      6
                      A                      A                      A
 Frequencies --     78.6301               132.4769               164.3081
 Red. masses --      5.8053                 3.1240                 4.3345
 Frc consts  --      0.0211                 0.0323                 0.0689
 IR Inten    --      5.3786                 6.6635                 1.9597

                      7                      8                      9
                      A                      A                      A
 Frequencies --    204.8754               218.6026               234.4716
 Red. masses --      3.4386                 3.0892                 2.3822
 Frc consts  --      0.0850                 0.0870                 0.0772
 IR Inten    --      3.4560                 2.7589                 1.1942

                     10                     11                     12
                      A                      A                      A
 Frequencies --    287.5802               311.4957               354.9715
 Red. masses --      1.9212                 5.5327                 4.8494
 Frc consts  --      0.0936                 0.3163                 0.3600
 IR Inten    --      0.8257                 5.7286                 3.1481

                     13                     14                     15
                      A                      A                      A
 Frequencies --    373.6991               441.5986               452.1492
 Red. masses --      4.2345                 2.1315                 1.3270
 Frc consts  --      0.3484                 0.2449                 0.1598
 IR Inten    --     10.3268                41.7332                65.4859

                     16                     17                     18
                      A                      A                      A
 Frequencies --    467.5114               492.2446               522.1238
 Red. masses --      1.4384                 2.8064                 5.5177
 Frc consts  --      0.1852                 0.4006                 0.8862
 IR Inten    --     70.1507                28.4895                 3.1412

                     19                     20                     21
                      A                      A                      A
 Frequencies --    559.9488               580.2690               584.8512
 Red. masses --      4.4040                 6.7232                 4.3614
 Frc consts  --      0.8136                 1.3338                 0.8790
 IR Inten    --      9.4616                24.4033                 5.6906

                     22                     23                     24
                      A                      A                      A
 Frequencies --    620.4181               648.1272               712.0576
 Red. masses --      8.7123                 5.5273                 5.1980
 Frc consts  --      1.9758                 1.3680                 1.5528
 IR Inten    --      2.3093                 3.1311                 1.7541

                     25                     26                     27
                      A                      A                      A
 Frequencies --    779.3766               813.5114               820.8346
 Red. masses --      5.4783                 1.3112                 2.3909
 Frc consts  --      1.9606                 0.5113                 0.9491
 IR Inten    --     12.1183                 4.9660                23.5759

                     28                     29                     30
                      A                      A                      A
 Frequencies --    825.2405               862.4265               913.8026
 Red. masses --      2.0439                 2.2536                 3.7250
 Frc consts  --      0.8201                 0.9876                 1.8327
 IR Inten    --     32.0149                10.9878                46.1354

                     31                     32                     33
                      A                      A                      A
 Frequencies --    924.8004               959.9338               997.2181
 Red. masses --      1.3756                 3.7632                 1.1198
 Frc consts  --      0.6932                 2.0431                 0.6561
 IR Inten    --      2.3643                 8.4847                47.9337

                     34                     35                     36
                      A                      A                      A
 Frequencies --   1064.2281              1157.8411              1180.9565
 Red. masses --      4.3483                 1.7224                 1.5984
 Frc consts  --      2.9016                 1.3605                 1.3134
 IR Inten    --     50.9777                39.7221                52.7803

                     37                     38                     39
                      A                      A                      A
 Frequencies --   1184.9818              1202.9076              1225.9336
 Red. masses --      1.2610                 1.5401                 1.7123
 Frc consts  --      1.0433                 1.3130                 1.5162
 IR Inten    --      1.1002                26.6597               168.4708

                     40                     41                     42
                      A                      A                      A
 Frequencies --   1238.1508              1271.7326              1302.6523
 Red. masses --      1.3291                 2.3492                 2.1920
 Frc consts  --      1.2005                 2.2385                 2.1916
 IR Inten    --    108.8894                50.4910               283.0761

                     43                     44                     45
                      A                      A                      A
 Frequencies --   1317.2788              1334.6254              1344.0374
 Red. masses --      1.8046                 1.8856                 3.6537
 Frc consts  --      1.8449                 1.9789                 3.8887
 IR Inten    --    397.9547                95.9736               168.3394

                     46                     47                     48
                      A                      A                      A
 Frequencies --   1371.5576              1433.0772              1471.6936
 Red. masses --      1.4132                 2.9714                 3.1617
 Frc consts  --      1.5664                 3.5954                 4.0346
 IR Inten    --     10.5641                22.5244                21.2862

                     49                     50                     51
                      A                      A                      A
 Frequencies --   1503.4383              1518.9911              1533.4378
 Red. masses --      1.2841                 1.0477                 1.0692
 Frc consts  --      1.7101                 1.4243                 1.4812
 IR Inten    --     10.4971                 9.2240                51.6226

                     52                     53                     54
                      A                      A                      A
 Frequencies --   1566.4121              1644.9481              1660.2415
 Red. masses --      3.1943                 5.7097                 6.1790
 Frc consts  --      4.6179                 9.1027                10.0349
 IR Inten    --    244.5109               141.9332                56.1613

                     55                     56                     57
                      A                      A                      A
 Frequencies --   1688.9051              1797.1673              3063.3689
 Red. masses --      5.3435                 9.6694                 1.0325
 Frc consts  --      8.9803                18.4004                 5.7089
 IR Inten    --     45.8994               499.5148                43.7896

                     58                     59                     60
                      A                      A                      A
 Frequencies --   3140.1411              3159.0011              3204.7899
 Red. masses --      1.1075                 1.0884                 1.1024
 Frc consts  --      6.4340                 6.3995                 6.6710
 IR Inten    --     28.8384                20.4361                16.4538

                     61                     62                     63
                      A                      A                      A
 Frequencies --   3231.8664              3236.3661              3245.4899
 Red. masses --      1.0887                 1.0902                 1.0918
 Frc consts  --      6.7001                 6.7277                 6.7754
 IR Inten    --      4.8670                 5.3360                 0.4773

                     64                     65                     66
                      A                      A                      A
 Frequencies --   3250.0159              3789.1633              3832.4358
 Red. masses --      1.0935                 1.0654                 1.0657
 Frc consts  --      6.8054                 9.0122                 9.2223
 IR Inten    --      4.5931               155.3704                23.8992

 - Thermochemistry -
 -------------------
 Temperature   298.150 Kelvin.  Pressure   1.00000 Atm.
 Atom     1 has atomic number  6 and mass  12.00000

 Molecular mass:   194.05791 amu.
 Principal axes and moments of inertia in atomic units:
                           1         2         3
     Eigenvalues --  1185.280056349.459977412.24578
           X            0.99992   0.01185   0.00316
           Y           -0.01185   0.99993   0.00181
           Z           -0.00314  -0.00185   0.99999
 This molecule is an asymmetric top.
 Rotational symmetry number  1.
 Warning -- assumption of classical behavior for rotation
           may cause significant error
 Rotational temperatures (Kelvin)      0.07307     0.01364     0.01169
 Rotational constants (GHZ):           1.52263     0.28424     0.24348
 Zero-point vibrational energy     488499.7 (Joules/Mol)
                                  116.75424 (Kcal/Mol)
 Warning -- explicit consideration of  22 degrees of freedom as
           vibrations may cause significant error
 Vibrational temperatures:     47.91    87.71    99.46   113.13   190.60
          (Kelvin)            236.40   294.77   314.52   337.35   413.76
                              448.17   510.72   537.67   635.36   650.54
                              672.64   708.23   751.22   805.64   834.88
                              841.47   892.64   932.51  1024.49  1121.35
                             1170.46  1181.00  1187.34  1240.84  1314.76
                             1330.58  1381.13  1434.77  1531.19  1665.87
                             1699.13  1704.92  1730.71  1763.84  1781.42
                             1829.74  1874.22  1895.27  1920.23  1933.77
                             1973.36  2061.88  2117.44  2163.11  2185.49
                             2206.27  2253.71  2366.71  2388.71  2429.95
                             2585.72  4407.50  4517.96  4545.09  4610.97
                             4649.93  4656.40  4669.53  4676.04  5451.75
                             5514.01

 Zero-point correction=                           0.186060 (Hartree/Particle)
 Thermal correction to Energy=                    0.199479
 Thermal correction to Enthalpy=                  0.200423
 Thermal correction to Gibbs Free Energy=         0.144930
 Sum of electronic and zero-point Energies=           -687.163889
 Sum of electronic and thermal Energies=              -687.150470
 Sum of electronic and thermal Enthalpies=            -687.149525
 Sum of electronic and thermal Free Energies=         -687.205018

                     E (Thermal)             CV                S
                      KCal/Mol        Cal/Mol-Kelvin    Cal/Mol-Kelvin
 Total                  125.175             49.861            116.794
 Electronic               0.000              0.000              0.000
 Translational            0.889              2.981             41.694
 Rotational               0.889              2.981             32.389
 Vibrational            123.398             43.900             42.711
 Vibration     1          0.594              1.983              5.623
 Vibration     2          0.597              1.973              4.426
 Vibration     3          0.598              1.969              4.178
 Vibration     4          0.600              1.964              3.925
 Vibration     5          0.613              1.921              2.910
 Vibration     6          0.623              1.886              2.500
 Vibration     7          0.640              1.833              2.089
 Vibration     8          0.646              1.813              1.971
 Vibration     9          0.654              1.788              1.844
 Vibration    10          0.685              1.697              1.488
 Vibration    11          0.700              1.652              1.354
 Vibration    12          0.731              1.565              1.144
 Vibration    13          0.745              1.526              1.065
 Vibration    14          0.801              1.379              0.822
 Vibration    15          0.811              1.356              0.789
 Vibration    16          0.825              1.322              0.745
 Vibration    17          0.848              1.267              0.678
 Vibration    18          0.877              1.201              0.605
 Vibration    19          0.916              1.118              0.524
 Vibration    20          0.937              1.074              0.485
 Vibration    21          0.942              1.064              0.476
 Vibration    22          0.980              0.989              0.416

 Optimization completed.
    -- Stationary point found.
 Normal termination of Gaussian 09 at Thu Dec 19 02:42:14 2024.
