 Gaussian 09, Revision E.01,
 Gaussian 09:  ES64L-G09RevE.01 30-Nov-2015

 -----------------------------------------------------
 # opt freq B2PLYP/6-31+g(d,p) EmpiricalDispersion=GD3
 -----------------------------------------------------

 ----------
 [No Title]
 ----------
 Symbolic Z-matrix:
 Charge =  1 Multiplicity = 1

 SCF Done:  E(RB2PLYP) =  -687.021368871     A.U. after   15 cycles
 E2(B2PLYP) =    -0.6819891665D+00 E(B2PLYP) =    -0.68770335803749D+03
 SCF Done:  E(RB2PLYP) =  -687.020849248     A.U. after   12 cycles
 E2(B2PLYP) =    -0.6827642089D+00 E(B2PLYP) =    -0.68770361345641D+03
 SCF Done:  E(RB2PLYP) =  -687.020737746     A.U. after   11 cycles
 E2(B2PLYP) =    -0.6829031050D+00 E(B2PLYP) =    -0.68770364085118D+03
 SCF Done:  E(RB2PLYP) =  -687.020698103     A.U. after   11 cycles
 E2(B2PLYP) =    -0.6829491553D+00 E(B2PLYP) =    -0.68770364725823D+03
 SCF Done:  E(RB2PLYP) =  -687.020677656     A.U. after   11 cycles
 E2(B2PLYP) =    -0.6829742499D+00 E(B2PLYP) =    -0.68770365190580D+03
 SCF Done:  E(RB2PLYP) =  -687.020689714     A.U. after   11 cycles
 E2(B2PLYP) =    -0.6829661889D+00 E(B2PLYP) =    -0.68770365590308D+03
 SCF Done:  E(RB2PLYP) =  -687.020700002     A.U. after   11 cycles
 E2(B2PLYP) =    -0.6829571456D+00 E(B2PLYP) =    -0.68770365714710D+03
 SCF Done:  E(RB2PLYP) =  -687.020702282     A.U. after   10 cycles
 E2(B2PLYP) =    -0.6829552742D+00 E(B2PLYP) =    -0.68770365755628D+03
 SCF Done:  E(RB2PLYP) =  -687.020699996     A.U. after   10 cycles
 E2(B2PLYP) =    -0.6829577347D+00 E(B2PLYP) =    -0.68770365773068D+03
 SCF Done:  E(RB2PLYP) =  -687.020698315     A.U. after   10 cycles
 E2(B2PLYP) =    -0.6829594729D+00 E(B2PLYP) =    -0.68770365778753D+03
 Optimization completed.
    -- Stationary point found.
 Normal termination of Gaussian 09 at Thu Dec 19 14:39:03 2024.

 ----------------------------------------------------------------------
 #N Geom=AllCheck Guess=TCheck SCRF=Check GenChk RB2PLYP(FC)/6-31+G(d,p
 ) Freq
 ----------------------------------------------------------------------

 Structure from the checkpoint file:  "B2PLYPD3FAyang.chk"
 ----------
 [No Title]
 ----------
 Charge =  1 Multiplicity = 1

                         Standard orientation:
 ---------------------------------------------------------------------
 Center     Atomic      Atomic             Coordinates (Angstroms)
 Number     Number       Type             X           Y           Z
 ---------------------------------------------------------------------
      1          6           0        1.473684   -2.029713   -0.033795
      2          6           0        2.515107   -1.086767   -0.015000
      3          6           0        2.231329    0.309927    0.007260
      4          6           0        0.919649    0.737704    0.011236
      5          6           0       -0.147210   -0.212381   -0.002612
      6          6           0        0.162644   -1.600611   -0.032421
      7          8           0        3.775916   -1.516086   -0.019292
      8          6           0       -1.474147    0.276359    0.009629
      9          6           0       -2.645682   -0.473483    0.031562
     10          6           0       -3.893529    0.133864    0.002896
     11          8           0       -4.967641   -0.629250    0.139222
     12          8           0       -4.012663    1.445979   -0.170010
     13          8           0        3.349406    1.078150    0.020990
     14          6           0        3.198212    2.507362    0.041032
     15          1           0        1.731860   -3.080613   -0.054755
     16          1           0        0.685127    1.794326    0.028780
     17          1           0       -0.629143   -2.337993   -0.052263
     18          1           0        4.381595   -0.753863   -0.005418
     19          1           0       -1.589283    1.357176    0.002574
     20          1           0       -2.653043   -1.553155    0.071302
     21          1           0       -5.801407   -0.204344   -0.116510
     22          1           0       -4.871468    1.804890    0.102432
     23          1           0        4.208304    2.905603    0.047460
     24          1           0        2.669174    2.844665   -0.852863
     25          1           0        2.667800    2.819396    0.943262
 ---------------------------------------------------------------------

 SCF Done:  E(RB2PLYP) =  -687.020698315     A.U. after    1 cycles
 E2(B2PLYP) =    -0.6829594737D+00 E(B2PLYP) =    -0.68770365778840D+03
 E2(B2PLYP) =    -0.6829594737D+00 E(B2PLYP) =    -0.68770365778840D+03

 The electronic state is 1-A.
 Alpha  occ. eigenvalues --  -19.98957 -19.98702 -19.92023 -19.91341 -10.97136
 Alpha  occ. eigenvalues --  -10.85541 -10.83530 -10.83446 -10.79849 -10.79143
 Alpha  occ. eigenvalues --  -10.79096 -10.78905 -10.78806 -10.76983  -1.46367
 Alpha  occ. eigenvalues --   -1.38283  -1.36804  -1.33541  -1.13778  -1.09326
 Alpha  occ. eigenvalues --   -1.02758  -1.01417  -0.95592  -0.93173  -0.88429
 Alpha  occ. eigenvalues --   -0.87503  -0.84466  -0.80929  -0.78390  -0.75888
 Alpha  occ. eigenvalues --   -0.73278  -0.72407  -0.71717  -0.70145  -0.67807
 Alpha  occ. eigenvalues --   -0.66749  -0.65585  -0.64012  -0.63349  -0.62701
 Alpha  occ. eigenvalues --   -0.62400  -0.61071  -0.60168  -0.59304  -0.56732
 Alpha  occ. eigenvalues --   -0.55179  -0.54333  -0.53724  -0.48564  -0.42713
 Alpha  occ. eigenvalues --   -0.38783
 Alpha virt. eigenvalues --   -0.20302  -0.12432  -0.08643  -0.08459  -0.07529
 Alpha virt. eigenvalues --   -0.06572  -0.05966  -0.05579  -0.04314  -0.04059
 Alpha virt. eigenvalues --   -0.03076  -0.02610  -0.02108  -0.01702  -0.01460

 Mulliken charges:
               1
     1  C    0.200134
     2  C   -0.167252
     3  C    0.132175
     4  C   -0.162643
     5  C    0.197394
     6  C   -0.247180
     7  O   -0.500192
     8  C    0.108561
     9  C   -0.627226
    10  C    0.982577
    11  O   -0.445503
    12  O   -0.497847
    13  O   -0.494593
    14  C   -0.080602
    15  H    0.196982
    16  H    0.168857
    17  H    0.164717
    18  H    0.422949
    19  H    0.186837
    20  H    0.182865
    21  H    0.397909
    22  H    0.399031
    23  H    0.176270
    24  H    0.152960
    25  H    0.152820
 Sum of Mulliken charges =   1.00000

 Dipole moment (field-independent basis, Debye):
    X=             -8.2422    Y=              3.6556    Z=              0.0621  Tot=              9.0167
 Quadrupole moment (field-independent basis, Debye-Ang):
   XX=              6.1320   YY=            -62.2096   ZZ=            -83.4435
   XY=             -2.2719   XZ=              0.5471   YZ=              1.4518

  Exact polarizability: 327.831 -22.268 134.156  -0.663   0.023  69.560
 Approx polarizability: 333.905 -32.334 159.149  -1.054  -0.201  88.259

                      1                      2                      3
                      A                      A                      A
 Frequencies --     45.7884                58.1908                83.4662
 Red. masses --      6.0433                 5.5244                 3.5070
 Frc consts  --      0.0075                 0.0110                 0.0144
 IR Inten    --      0.1683                 1.3274                 6.3906

                      4                      5                      6
                      A                      A                      A
 Frequencies --     86.5827               137.9741               173.9066
 Red. masses --      4.9172                 5.3236                 2.9541
 Frc consts  --      0.0217                 0.0597                 0.0526
 IR Inten    --      1.1251                 2.4095                12.4083

                      7                      8                      9
                      A                      A                      A
 Frequencies --    197.3459               231.2331               236.1179
 Red. masses --      3.6890                 5.6963                 1.3495
 Frc consts  --      0.0846                 0.1795                 0.0443
 IR Inten    --     11.1339                14.1520                15.1432

                     10                     11                     12
                      A                      A                      A
 Frequencies --    280.8460               308.5617               318.9478
 Red. masses --      1.5379                 5.3411                 2.7228
 Frc consts  --      0.0715                 0.2996                 0.1632
 IR Inten    --    159.9421                 0.1215                53.7213

                     13                     14                     15
                      A                      A                      A
 Frequencies --    356.8502               359.8470               425.2516
 Red. masses --      4.5181                 1.8972                 1.1955
 Frc consts  --      0.3390                 0.1447                 0.1274
 IR Inten    --      3.7840                85.2155               252.2512

                     16                     17                     18
                      A                      A                      A
 Frequencies --    437.6442               497.2617               519.6999
 Red. masses --      3.5649                 5.7775                 5.0614
 Frc consts  --      0.4023                 0.8417                 0.8054
 IR Inten    --      0.6665                10.4193                13.9431

                     19                     20                     21
                      A                      A                      A
 Frequencies --    528.4898               565.5423               580.3649
 Red. masses --      5.4661                 4.5778                 1.1089
 Frc consts  --      0.8995                 0.8627                 0.2201
 IR Inten    --     11.2965                34.1293               116.0704

                     22                     23                     24
                      A                      A                      A
 Frequencies --    585.4277               607.7478               632.6390
 Red. masses --      4.0301                 6.9195                 4.6936
 Frc consts  --      0.8138                 1.5058                 1.1068
 IR Inten    --      7.7983                 0.3203                12.5087

                     25                     26                     27
                      A                      A                      A
 Frequencies --    678.1259               780.5713               805.0228
 Red. masses --      5.5461                 5.7342                 1.4016
 Frc consts  --      1.5027                 2.0585                 0.5352
 IR Inten    --      6.3033                19.1451                 0.6197

                     28                     29                     30
                      A                      A                      A
 Frequencies --    831.1015               837.4804               841.1779
 Red. masses --      5.3846                 1.3182                 1.4996
 Frc consts  --      2.1913                 0.5447                 0.6252
 IR Inten    --      1.1773                36.2716                41.4132

                     31                     32                     33
                      A                      A                      A
 Frequencies --    939.1994               958.4448               985.9552
 Red. masses --      1.2368                 3.7914                 3.2904
 Frc consts  --      0.6428                 2.0520                 1.8846
 IR Inten    --      0.8804                68.3672               168.0994

                     34                     35                     36
                      A                      A                      A
 Frequencies --    990.7785              1045.1328              1158.3026
 Red. masses --      1.4825                 4.4409                 1.6094
 Frc consts  --      0.8574                 2.8580                 1.2722
 IR Inten    --     30.1463                64.4894                91.6108

                     37                     38                     39
                      A                      A                      A
 Frequencies --   1161.4408              1175.8973              1183.6274
 Red. masses --      1.2092                 1.4882                 1.2574
 Frc consts  --      0.9610                 1.2124                 1.0379
 IR Inten    --    224.1959              1294.5536                 1.2690

                     40                     41                     42
                      A                      A                      A
 Frequencies --   1208.1353              1234.4293              1247.6944
 Red. masses --      1.3282                 1.2916                 1.6300
 Frc consts  --      1.1422                 1.1596                 1.4951
 IR Inten    --     49.2085               171.6828                70.5246

                     43                     44                     45
                      A                      A                      A
 Frequencies --   1285.7846              1317.7582              1343.5945
 Red. masses --      2.0988                 1.6836                 2.4189
 Frc consts  --      2.0444                 1.7225                 2.5728
 IR Inten    --     34.7113                79.8059                64.5258

                     46                     47                     48
                      A                      A                      A
 Frequencies --   1364.5819              1378.0768              1439.7943
 Red. masses --      1.5351                 3.0574                 3.7334
 Frc consts  --      1.6841                 3.4209                 4.5599
 IR Inten    --    496.5994               289.3615               284.3305

                     49                     50                     51
                      A                      A                      A
 Frequencies --   1477.7351              1493.1608              1508.2295
 Red. masses --      4.3464                 1.8097                 2.0123
 Frc consts  --      5.5921                 2.3772                 2.6969
 IR Inten    --    311.3295                 1.2736                12.1798

                     52                     53                     54
                      A                      A                      A
 Frequencies --   1520.4589              1528.6836              1570.1742
 Red. masses --      1.0472                 1.0781                 3.5687
 Frc consts  --      1.4263                 1.4844                 5.1839
 IR Inten    --     13.1515                48.8231               722.7751

                     55                     56                     57
                      A                      A                      A
 Frequencies --   1611.6247              1623.6448              1646.2870
 Red. masses --      4.7297                 4.6564                 4.2596
 Frc consts  --      7.2379                 7.2324                 6.8019
 IR Inten    --    598.3021                56.9391              1349.6735

                     58                     59                     60
                      A                      A                      A
 Frequencies --   1688.1090              3077.7976              3163.3324
 Red. masses --      5.2849                 1.0320                 1.1088
 Frc consts  --      8.8733                 5.7601                 6.5370
 IR Inten    --    539.3065                24.7915                17.8571

                     61                     62                     63
                      A                      A                      A
 Frequencies --   3204.9426              3227.5598              3245.8752
 Red. masses --      1.0901                 1.1037                 1.0905
 Frc consts  --      6.5973                 6.7741                 6.7692
 IR Inten    --      0.3270                 4.5859                 0.9070

                     64                     65                     66
                      A                      A                      A
 Frequencies --   3246.1259              3260.5054              3275.6042
 Red. masses --      1.0900                 1.0966                 1.0910
 Frc consts  --      6.7671                 6.8685                 6.8967
 IR Inten    --      2.4927                 0.5306                 2.0656

                     67                     68                     69
                      A                      A                      A
 Frequencies --   3732.4117              3790.0364              3799.5699
 Red. masses --      1.0653                 1.0680                 1.0663
 Frc consts  --      8.7441                 9.0388                 9.0695
 IR Inten    --    403.8760                82.7736               680.3412

 - Thermochemistry -
 -------------------
 Temperature   298.150 Kelvin.  Pressure   1.00000 Atm.
 Atom     1 has atomic number  6 and mass  12.00000

 Molecular mass:   195.06573 amu.
 Principal axes and moments of inertia in atomic units:
                           1         2         3
     Eigenvalues --  1179.680676329.779557491.49189
           X            0.99994   0.01084   0.00022
           Y           -0.01084   0.99994   0.00251
           Z           -0.00020  -0.00252   1.00000
 This molecule is an asymmetric top.
 Rotational symmetry number  1.
 Warning -- assumption of classical behavior for rotation
           may cause significant error
 Rotational temperatures (Kelvin)      0.07342     0.01368     0.01156
 Rotational constants (GHZ):           1.52986     0.28512     0.24091
 Zero-point vibrational energy     521211.2 (Joules/Mol)
                                  124.57246 (Kcal/Mol)
 Warning -- explicit consideration of  23 degrees of freedom as
           vibrations may cause significant error
 Vibrational temperatures:     65.88    83.72   120.09   124.57   198.51
          (Kelvin)            250.21   283.94   332.69   339.72   404.07
                              443.95   458.89   513.43   517.74   611.84
                              629.67   715.45   747.73   760.38   813.69
                              835.01   842.30   874.41   910.23   975.67
                             1123.07  1158.25  1195.77  1204.95  1210.27
                             1351.30  1378.99  1418.57  1425.51  1503.71
                             1666.54  1671.05  1691.85  1702.97  1738.24
                             1776.07  1795.15  1849.95  1895.96  1933.13
                             1963.33  1982.74  2071.54  2126.13  2148.32
                             2170.00  2187.60  2199.43  2259.13  2318.77
                             2336.06  2368.64  2428.81  4428.26  4551.32
                             4611.19  4643.73  4670.08  4670.45  4691.13
                             4712.86  5370.10  5453.01  5466.73

 Zero-point correction=                           0.198519 (Hartree/Particle)
 Thermal correction to Energy=                    0.212265
 Thermal correction to Enthalpy=                  0.213210
 Thermal correction to Gibbs Free Energy=         0.157659
 Sum of electronic and zero-point Energies=           -687.505139
 Sum of electronic and thermal Energies=              -687.491392
 Sum of electronic and thermal Enthalpies=            -687.490448
 Sum of electronic and thermal Free Energies=         -687.545999

                     E (Thermal)             CV                S
                      KCal/Mol        Cal/Mol-Kelvin    Cal/Mol-Kelvin
 Total                  133.199             51.617            116.917
 Electronic               0.000              0.000              0.000
 Translational            0.889              2.981             41.710
 Rotational               0.889              2.981             32.392
 Vibrational            131.421             45.656             42.815
 Vibration     1          0.595              1.979              4.991
 Vibration     2          0.596              1.974              4.518
 Vibration     3          0.600              1.961              3.808
 Vibration     4          0.601              1.959              3.736
 Vibration     5          0.614              1.915              2.832
 Vibration     6          0.627              1.875              2.393
 Vibration     7          0.637              1.844              2.158
 Vibration     8          0.653              1.793              1.869
 Vibration     9          0.655              1.785              1.832
 Vibration    10          0.681              1.709              1.529
 Vibration    11          0.698              1.657              1.370
 Vibration    12          0.705              1.637              1.315
 Vibration    13          0.732              1.561              1.136
 Vibration    14          0.734              1.555              1.123
 Vibration    15          0.787              1.415              0.874
 Vibration    16          0.798              1.388              0.834
 Vibration    17          0.853              1.256              0.665
 Vibration    18          0.875              1.206              0.611
 Vibration    19          0.883              1.187              0.591
 Vibration    20          0.921              1.106              0.513
 Vibration    21          0.937              1.074              0.485
 Vibration    22          0.942              1.063              0.475
 Vibration    23          0.967              1.015              0.437

 Optimization completed.
    -- Stationary point found.
 Normal termination of Gaussian 09 at Thu Dec 19 15:39:03 2024.
