 Gaussian 09, Revision E.01,
 Gaussian 09:  ES64L-G09RevE.01 30-Nov-2015

 ----------------------------------------------------
 # opt freq b3lyp/6-31+g(d,p) EmpiricalDispersion=GD3
 ----------------------------------------------------

 ----------
 [No Title]
 ----------
 Symbolic Z-matrix:
 Charge =  0 Multiplicity = 1

 SCF Done:  E(RB3LYP) =  -688.027292090     A.U. after   15 cycles
 SCF Done:  E(RB3LYP) =  -688.027525295     A.U. after   12 cycles
 SCF Done:  E(RB3LYP) =  -688.027547235     A.U. after   10 cycles
 SCF Done:  E(RB3LYP) =  -688.027544037     A.U. after   10 cycles
 SCF Done:  E(RB3LYP) =  -688.027549802     A.U. after   10 cycles
 Optimization completed.
    -- Stationary point found.
 Normal termination of Gaussian 09 at Tue Dec 17 15:03:19 2024.

 ----------------------------------------------------------------------
 #N Geom=AllCheck Guess=TCheck SCRF=Check GenChk RB3LYP/6-31+G(d,p) Fre
 q
 ----------------------------------------------------------------------

 Structure from the checkpoint file:  "b3lypD3FA.chk"
 ----------
 [No Title]
 ----------
 Charge =  0 Multiplicity = 1

                         Standard orientation:
 ---------------------------------------------------------------------
 Center     Atomic      Atomic             Coordinates (Angstroms)
 Number     Number       Type             X           Y           Z
 ---------------------------------------------------------------------
      1          6           0        1.463566   -2.016651   -0.000780
      2          6           0        2.497913   -1.081865   -0.000497
      3          6           0        2.193075    0.295167   -0.000153
      4          6           0        0.867768    0.713180   -0.000077
      5          6           0       -0.186823   -0.227942   -0.000341
      6          6           0        0.136555   -1.596396   -0.000709
      7          8           0        3.788106   -1.507377   -0.000574
      8          6           0       -1.561076    0.270280   -0.000214
      9          6           0       -2.700202   -0.452758    0.000170
     10          8           0        3.298251    1.109266    0.000090
     11          6           0        3.105883    2.521969    0.000568
     12          6           0       -4.082915    0.075799    0.000459
     13          8           0       -5.049784   -0.657015    0.004061
     14          8           0       -4.280882    1.428131   -0.001796
     15          1           0        1.720227   -3.070603   -0.001064
     16          1           0        0.632447    1.771747    0.000215
     17          1           0       -0.648453   -2.344157   -0.000962
     18          1           0        4.369893   -0.731058   -0.000335
     19          1           0       -1.627202    1.360189   -0.000206
     20          1           0       -2.681712   -1.537054    0.000812
     21          1           0        4.104421    2.959522    0.000736
     22          1           0        2.563544    2.844932   -0.896593
     23          1           0        2.563504    2.844319    0.897924
     24          1           0       -3.444664    1.913425   -0.005329
 ---------------------------------------------------------------------

 SCF Done:  E(RB3LYP) =  -688.027549802     A.U. after    1 cycles

 The electronic state is 1-A.
 Alpha  occ. eigenvalues --  -19.22205 -19.20881 -19.20468 -19.14140 -10.32677
 Alpha  occ. eigenvalues --  -10.27929 -10.27872 -10.27306 -10.24035 -10.22861
 Alpha  occ. eigenvalues --  -10.22511 -10.21875 -10.21742 -10.21486  -1.10965
 Alpha  occ. eigenvalues --   -1.10359  -1.08037  -1.02132  -0.88670  -0.82629
 Alpha  occ. eigenvalues --   -0.78487  -0.76938  -0.72901  -0.67716  -0.63918
 Alpha  occ. eigenvalues --   -0.62660  -0.60340  -0.58407  -0.55516  -0.53250
 Alpha  occ. eigenvalues --   -0.51692  -0.50244  -0.48627  -0.47349  -0.45582
 Alpha  occ. eigenvalues --   -0.44918  -0.44818  -0.43933  -0.43255  -0.41252
 Alpha  occ. eigenvalues --   -0.40487  -0.38531  -0.38227  -0.37628  -0.36935
 Alpha  occ. eigenvalues --   -0.36505  -0.32538  -0.30481  -0.28091  -0.26803
 Alpha  occ. eigenvalues --   -0.23051
 Alpha virt. eigenvalues --   -0.08258  -0.02898  -0.02295  -0.01214  -0.00195
 Alpha virt. eigenvalues --    0.00284   0.00935   0.02699   0.03078   0.03329
 Alpha virt. eigenvalues --    0.04674   0.04822   0.05301   0.06052   0.06576

 Mulliken charges:
               1
     1  C    0.184733
     2  C   -0.174890
     3  C    0.305416
     4  C   -0.502068
     5  C    0.194842
     6  C   -0.312040
     7  O   -0.523247
     8  C   -0.004713
     9  C    0.104452
    10  O   -0.453706
    11  C   -0.123744
    12  C    0.400838
    13  O   -0.451958
    14  O   -0.427866
    15  H    0.145460
    16  H    0.116343
    17  H    0.125698
    18  H    0.391093
    19  H    0.078408
    20  H    0.138633
    21  H    0.156027
    22  H    0.151509
    23  H    0.151525
    24  H    0.329256
 Sum of Mulliken charges =  -0.00000

 Dipole moment (field-independent basis, Debye):
    X=              6.8830    Y=              3.7737    Z=             -0.0105  Tot=              7.8496
 Quadrupole moment (field-independent basis, Debye-Ang):
   XX=           -116.3531   YY=            -71.3306   ZZ=            -85.0956
   XY=              5.7166   XZ=              0.0539   YZ=             -0.0036

  Exact polarizability: 241.605   3.916 140.883  -0.039  -0.018  74.250
 Approx polarizability: 366.234  10.176 222.603  -0.089  -0.045 110.167

 ******    1 imaginary frequencies (negative Signs) ******

                      1                      2                      3
                      A                      A                      A
 Frequencies --    -65.2606                27.7555                70.4259
 Red. masses --      2.5638                 4.1817                 4.0237
 Frc consts  --      0.0064                 0.0019                 0.0118
 IR Inten    --     20.1689                 0.4292                 8.3880

                      4                      5                      6
                      A                      A                      A
 Frequencies --     76.5361                86.6642               165.2042
 Red. masses --      4.1598                 6.0905                 4.4815
 Frc consts  --      0.0144                 0.0270                 0.0721
 IR Inten    --      0.1622                 3.8702                 0.5182

                      7                      8                      9
                      A                      A                      A
 Frequencies --    201.6601               221.1151               234.7502
 Red. masses --      3.9617                 1.7127                 7.2754
 Frc consts  --      0.0949                 0.0493                 0.2362
 IR Inten    --      4.0169                 0.0003                 6.9533

                     10                     11                     12
                      A                      A                      A
 Frequencies --    289.0293               303.0973               352.5623
 Red. masses --      1.7721                 6.1936                 2.6996
 Frc consts  --      0.0872                 0.3352                 0.1977
 IR Inten    --      0.2340                 7.5732                17.4200

                     13                     14                     15
                      A                      A                      A
 Frequencies --    363.4319               383.4852               456.1010
 Red. masses --      4.6990                 1.5678                 2.7238
 Frc consts  --      0.3657                 0.1358                 0.3338
 IR Inten    --      4.1695                64.9757                17.3031

                     16                     17                     18
                      A                      A                      A
 Frequencies --    477.5273               490.0356               527.6355
 Red. masses --      1.1444                 5.4015                 6.1339
 Frc consts  --      0.1537                 0.7642                 1.0061
 IR Inten    --     96.5578                 1.2631                 1.1963

                     19                     20                     21
                      A                      A                      A
 Frequencies --    576.3158               582.5730               583.3932
 Red. masses --      4.1217                 7.2450                 3.7886
 Frc consts  --      0.8066                 1.4487                 0.7597
 IR Inten    --     12.3759                28.2768                 9.2920

                     22                     23                     24
                      A                      A                      A
 Frequencies --    655.0053               698.0826               722.8466
 Red. masses --      5.8259                 4.9350                 4.6661
 Frc consts  --      1.4727                 1.4170                 1.4365
 IR Inten    --      2.7282                 0.0009                 0.0953

                     25                     26                     27
                      A                      A                      A
 Frequencies --    775.4651               822.0378               830.6688
 Red. masses --      5.9275                 5.4907                 1.4544
 Frc consts  --      2.1001                 2.1860                 0.5913
 IR Inten    --     11.5688                12.8707                18.4146

                     28                     29                     30
                      A                      A                      A
 Frequencies --    850.1201               884.6913               909.5185
 Red. masses --      1.5843                 2.0212                 5.3244
 Frc consts  --      0.6746                 0.9321                 2.5951
 IR Inten    --     33.1401                 0.3085                34.7536

                     31                     32                     33
                      A                      A                      A
 Frequencies --    953.0332               956.9502               992.0293
 Red. masses --      1.3087                 3.9091                 1.1228
 Frc consts  --      0.7003                 2.1091                 0.6511
 IR Inten    --      4.4628                 6.8411                40.0484

                     34                     35                     36
                      A                      A                      A
 Frequencies --   1058.8815              1154.1524              1169.8352
 Red. masses --      4.2660                 1.7659                 1.5955
 Frc consts  --      2.8181                 1.3859                 1.2864
 IR Inten    --     52.8906                41.1417                67.7109

                     37                     38                     39
                      A                      A                      A
 Frequencies --   1175.1181              1195.8869              1217.0750
 Red. masses --      1.2678                 1.4352                 1.8081
 Frc consts  --      1.0315                 1.2093                 1.5780
 IR Inten    --      0.7482                19.4984               227.2000

                     40                     41                     42
                      A                      A                      A
 Frequencies --   1228.5856              1262.6157              1296.9947
 Red. masses --      1.3492                 2.6752                 2.5550
 Frc consts  --      1.1999                 2.5128                 2.5323
 IR Inten    --    100.8700                75.8308               409.5923

                     43                     44                     45
                      A                      A                      A
 Frequencies --   1315.5904              1325.5817              1335.1635
 Red. masses --      1.5189                 1.8341                 5.1259
 Frc consts  --      1.5489                 1.8988                 5.3839
 IR Inten    --    285.6841               112.7698               190.2563

                     46                     47                     48
                      A                      A                      A
 Frequencies --   1371.4621              1415.6621              1464.0852
 Red. masses --      1.3741                 2.6181                 2.8043
 Frc consts  --      1.5228                 3.0914                 3.5416
 IR Inten    --      0.7665                47.2911                17.8640

                     49                     50                     51
                      A                      A                      A
 Frequencies --   1488.7977              1499.6584              1509.8015
 Red. masses --      1.3268                 1.0442                 1.0683
 Frc consts  --      1.7327                 1.3836                 1.4348
 IR Inten    --     13.7248                 9.6981                46.9827

                     52                     53                     54
                      A                      A                      A
 Frequencies --   1558.2655              1632.3015              1650.1422
 Red. masses --      3.2682                 5.5298                 6.0482
 Frc consts  --      4.6757                 8.6808                 9.7032
 IR Inten    --    258.2236               178.8888                71.2121

                     55                     56                     57
                      A                      A                      A
 Frequencies --   1688.3438              1799.8719              3020.3151
 Red. masses --      5.2722                 9.7895                 1.0337
 Frc consts  --      8.8545                18.6850                 5.5560
 IR Inten    --     57.3076               568.6585                45.7365

                     58                     59                     60
                      A                      A                      A
 Frequencies --   3088.3591              3113.1426              3157.9772
 Red. masses --      1.1071                 1.0876                 1.1011
 Frc consts  --      6.2214                 6.2102                 6.4696
 IR Inten    --     31.0678                32.8184                17.2374

                     61                     62                     63
                      A                      A                      A
 Frequencies --   3204.7460              3206.4146              3215.7458
 Red. masses --      1.0885                 1.0898                 1.0916
 Frc consts  --      6.5866                 6.6013                 6.6509
 IR Inten    --      5.3108                 6.2678                 0.4124

                     64                     65                     66
                      A                      A                      A
 Frequencies --   3222.6932              3770.8740              3815.4132
 Red. masses --      1.0927                 1.0654                 1.0656
 Frc consts  --      6.6862                 8.9255                 9.1393
 IR Inten    --      5.1986               158.0446                14.9842

 - Thermochemistry -
 -------------------
 Temperature   298.150 Kelvin.  Pressure   1.00000 Atm.
 Atom     1 has atomic number  6 and mass  12.00000

 Molecular mass:   194.05791 amu.
 Principal axes and moments of inertia in atomic units:
                           1         2         3
     Eigenvalues --  1176.865576362.572197527.84545
           X            0.99994   0.01122   0.00014
           Y           -0.01122   0.99994   0.00005
           Z           -0.00014  -0.00005   1.00000
 This molecule is an asymmetric top.
 Rotational symmetry number  1.
 Warning -- assumption of classical behavior for rotation
           may cause significant error
 Rotational temperatures (Kelvin)      0.07360     0.01361     0.01151
 Rotational constants (GHZ):           1.53352     0.28365     0.23974
    1 imaginary frequencies ignored.
 Zero-point vibrational energy     485380.6 (Joules/Mol)
                                  116.00875 (Kcal/Mol)
 Warning -- explicit consideration of  20 degrees of freedom as
           vibrations may cause significant error
 Vibrational temperatures:     39.93   101.33   110.12   124.69   237.69
          (Kelvin)            290.14   318.13   337.75   415.85   436.09
                              507.26   522.90   551.75   656.23   687.05
                              705.05   759.15   829.19   838.19   839.37
                              942.41  1004.38  1040.01  1115.72  1182.73
                             1195.15  1223.13  1272.87  1308.59  1371.20
                             1376.84  1427.31  1523.49  1660.57  1683.13
                             1690.73  1720.61  1751.10  1767.66  1816.62
                             1866.08  1892.84  1907.21  1921.00  1973.23
                             2036.82  2106.49  2142.05  2157.67  2172.26
                             2241.99  2348.51  2374.18  2429.15  2589.61
                             4345.55  4443.45  4479.11  4543.62  4610.91
                             4613.31  4626.74  4636.73  5425.44  5489.52

 Zero-point correction=                           0.184872 (Hartree/Particle)
 Thermal correction to Energy=                    0.197578
 Thermal correction to Enthalpy=                  0.198522
 Thermal correction to Gibbs Free Energy=         0.144532
 Sum of electronic and zero-point Energies=           -687.842678
 Sum of electronic and thermal Energies=              -687.829972
 Sum of electronic and thermal Enthalpies=            -687.829028
 Sum of electronic and thermal Free Energies=         -687.883018

                     E (Thermal)             CV                S
                      KCal/Mol        Cal/Mol-Kelvin    Cal/Mol-Kelvin
 Total                  123.982             47.797            113.632
 Electronic               0.000              0.000              0.000
 Translational            0.889              2.981             41.694
 Rotational               0.889              2.981             32.400
 Vibrational            122.204             41.835             39.538
 Vibration     1          0.593              1.984              5.984
 Vibration     2          0.598              1.968              4.141
 Vibration     3          0.599              1.965              3.978
 Vibration     4          0.601              1.958              3.734
 Vibration     5          0.624              1.885              2.489
 Vibration     6          0.639              1.838              2.118
 Vibration     7          0.648              1.809              1.950
 Vibration     8          0.655              1.788              1.842
 Vibration     9          0.686              1.694              1.480
 Vibration    10          0.695              1.668              1.400
 Vibration    11          0.729              1.570              1.155
 Vibration    12          0.737              1.548              1.107
 Vibration    13          0.753              1.505              1.025
 Vibration    14          0.814              1.347              0.778
 Vibration    15          0.834              1.300              0.717
 Vibration    16          0.846              1.272              0.684
 Vibration    17          0.883              1.189              0.593
 Vibration    18          0.933              1.082              0.492
 Vibration    19          0.939              1.069              0.481
 Vibration    20          0.940              1.067              0.479

 Normal termination of Gaussian 09 at Tue Dec 17 15:05:11 2024.
