 Gaussian 09, Revision E.01,
 Gaussian 09:  ES64L-G09RevE.01 30-Nov-2015

 ----------------------------------------------------
 # opt freq b3lyp/6-31+g(d,p) EmpiricalDispersion=GD3
 ----------------------------------------------------

 ----------
 [No Title]
 ----------
 Symbolic Z-matrix:
 Charge =  1 Multiplicity = 1

 SCF Done:  E(RB3LYP) =  -688.386444116     A.U. after   16 cycles
 SCF Done:  E(RB3LYP) =  -688.386674344     A.U. after   11 cycles
 SCF Done:  E(RB3LYP) =  -688.386695216     A.U. after   11 cycles
 SCF Done:  E(RB3LYP) =  -688.386698257     A.U. after   10 cycles
 SCF Done:  E(RB3LYP) =  -688.386699604     A.U. after   10 cycles
 SCF Done:  E(RB3LYP) =  -688.386701589     A.U. after   10 cycles
 SCF Done:  E(RB3LYP) =  -688.386703076     A.U. after   10 cycles
 SCF Done:  E(RB3LYP) =  -688.386703217     A.U. after    9 cycles
 Optimization completed.
    -- Stationary point found.
 Normal termination of Gaussian 09 at Tue Dec 17 16:49:24 2024.

 ----------------------------------------------------------------------
 #N Geom=AllCheck Guess=TCheck SCRF=Check GenChk RB3LYP/6-31+G(d,p) Fre
 q
 ----------------------------------------------------------------------

 Structure from the checkpoint file:  "b3lypD3FAyang.chk"
 ----------
 [No Title]
 ----------
 Charge =  1 Multiplicity = 1

                         Standard orientation:
 ---------------------------------------------------------------------
 Center     Atomic      Atomic             Coordinates (Angstroms)
 Number     Number       Type             X           Y           Z
 ---------------------------------------------------------------------
      1          6           0        1.474088   -2.030559   -0.023465
      2          6           0        2.517889   -1.089192   -0.011945
      3          6           0        2.234639    0.309488    0.004810
      4          6           0        0.923433    0.735703    0.011649
      5          6           0       -0.147528   -0.211708    0.002531
      6          6           0        0.164143   -1.600963   -0.017911
      7          8           0        3.776128   -1.521350   -0.018294
      8          6           0       -1.475087    0.277963    0.010836
      9          6           0       -2.650243   -0.467661    0.016804
     10          6           0       -3.900736    0.135943   -0.000260
     11          8           0       -4.972003   -0.635229    0.108614
     12          8           0       -4.025552    1.451502   -0.134070
     13          8           0        3.350686    1.079435    0.012518
     14          6           0        3.213785    2.508608    0.031054
     15          1           0        1.732108   -3.083481   -0.038433
     16          1           0        0.691616    1.794496    0.024735
     17          1           0       -0.628357   -2.340085   -0.029617
     18          1           0        4.389457   -0.764516   -0.009616
     19          1           0       -1.587368    1.360675    0.012196
     20          1           0       -2.658105   -1.549900    0.035987
     21          1           0       -5.811868   -0.209286   -0.127018
     22          1           0       -4.890067    1.804467    0.130124
     23          1           0        4.229380    2.901207    0.034329
     24          1           0        2.684850    2.854491   -0.863727
     25          1           0        2.687973    2.831333    0.936281
 ---------------------------------------------------------------------

 SCF Done:  E(RB3LYP) =  -688.386703217     A.U. after    1 cycles

 The electronic state is 1-A.
 Alpha  occ. eigenvalues --  -19.39232 -19.39073 -19.33486 -19.32805 -10.51742
 Alpha  occ. eigenvalues --  -10.41448 -10.39834 -10.38444 -10.36467 -10.35572
 Alpha  occ. eigenvalues --  -10.35526 -10.34827 -10.34716 -10.33546  -1.31366
 Alpha  occ. eigenvalues --   -1.23818  -1.23021  -1.19981  -1.01312  -0.97440
 Alpha  occ. eigenvalues --   -0.91704  -0.90404  -0.85540  -0.83333  -0.80000
 Alpha  occ. eigenvalues --   -0.78410  -0.75369  -0.72475  -0.70386  -0.67492
 Alpha  occ. eigenvalues --   -0.65502  -0.64212  -0.63905  -0.62521  -0.60452
 Alpha  occ. eigenvalues --   -0.59450  -0.58545  -0.57026  -0.55856  -0.55809
 Alpha  occ. eigenvalues --   -0.55250  -0.53586  -0.53278  -0.52446  -0.50937
 Alpha  occ. eigenvalues --   -0.48908  -0.47918  -0.47778  -0.43858  -0.39001
 Alpha  occ. eigenvalues --   -0.35682
 Alpha virt. eigenvalues --   -0.24943  -0.16291  -0.14427  -0.14287  -0.10739
 Alpha virt. eigenvalues --   -0.10173  -0.09642  -0.09487  -0.08109  -0.07589
 Alpha virt. eigenvalues --   -0.06535  -0.06283  -0.05617  -0.05014  -0.04856

 Mulliken charges:
               1
     1  C    0.119481
     2  C   -0.144184
     3  C    0.326480
     4  C   -0.310876
     5  C    0.189056
     6  C   -0.246741
     7  O   -0.455532
     8  C    0.173729
     9  C   -0.699988
    10  C    0.993084
    11  O   -0.409952
    12  O   -0.460193
    13  O   -0.447803
    14  C   -0.114670
    15  H    0.175949
    16  H    0.144250
    17  H    0.142605
    18  H    0.411443
    19  H    0.165547
    20  H    0.162919
    21  H    0.389273
    22  H    0.390984
    23  H    0.179947
    24  H    0.162677
    25  H    0.162514
 Sum of Mulliken charges =   1.00000

 Dipole moment (field-independent basis, Debye):
    X=             -7.5037    Y=              3.4340    Z=              0.0759  Tot=              8.2525
 Quadrupole moment (field-independent basis, Debye-Ang):
   XX=              7.9343   YY=            -62.1458   ZZ=            -82.9222
   XY=             -2.2213   XZ=              0.3419   YZ=              1.3258

  Exact polarizability: 317.516 -19.882 134.866  -0.467   0.083  69.583
 Approx polarizability: 583.830 -70.768 216.783  -1.584  -0.228 103.928

                      1                      2                      3
                      A                      A                      A
 Frequencies --     49.6430                60.8903                87.3709
 Red. masses --      6.2946                 5.7218                 5.1721
 Frc consts  --      0.0091                 0.0125                 0.0233
 IR Inten    --      0.3922                 1.7392                 0.8473

                      4                      5                      6
                      A                      A                      A
 Frequencies --     92.6239               145.6311               181.3930
 Red. masses --      3.3267                 5.2667                 2.6780
 Frc consts  --      0.0168                 0.0658                 0.0519
 IR Inten    --      5.6607                 2.0292                20.6991

                      7                      8                      9
                      A                      A                      A
 Frequencies --    197.4424               231.9612               241.4620
 Red. masses --      3.6944                 6.0020                 1.2905
 Frc consts  --      0.0849                 0.1903                 0.0443
 IR Inten    --      8.5248                14.6705                47.3675

                     10                     11                     12
                      A                      A                      A
 Frequencies --    275.0010               307.5307               326.0017
 Red. masses --      1.3684                 5.2309                 3.0934
 Frc consts  --      0.0610                 0.2915                 0.1937
 IR Inten    --    135.9573                 0.8458                19.8081

                     13                     14                     15
                      A                      A                      A
 Frequencies --    357.8684               370.3488               413.0024
 Red. masses --      4.6820                 2.1314                 1.1904
 Frc consts  --      0.3533                 0.1722                 0.1196
 IR Inten    --     11.8348                31.0897               252.2144

                     16                     17                     18
                      A                      A                      A
 Frequencies --    459.4834               497.5854               527.7742
 Red. masses --      3.2052                 5.8623                 5.4751
 Frc consts  --      0.3987                 0.8552                 0.8985
 IR Inten    --      0.3627                 9.2955                10.0647

                     19                     20                     21
                      A                      A                      A
 Frequencies --    566.4202               577.1632               586.9342
 Red. masses --      4.7086                 2.2158                 3.5489
 Frc consts  --      0.8901                 0.4349                 0.7203
 IR Inten    --     39.0268                55.4615                15.8729

                     22                     23                     24
                      A                      A                      A
 Frequencies --    600.5640               634.1731               685.2197
 Red. masses --      1.4187                 4.6620                 5.2168
 Frc consts  --      0.3015                 1.1047                 1.4432
 IR Inten    --     64.8490                 9.6530                 4.8964

                     25                     26                     27
                      A                      A                      A
 Frequencies --    720.0648               778.1473               830.7489
 Red. masses --      5.1224                 5.7154                 5.4877
 Frc consts  --      1.5648                 2.0390                 2.2314
 IR Inten    --      0.5817                18.4522                 1.2148

                     28                     29                     30
                      A                      A                      A
 Frequencies --    833.2804               865.5212               876.4119
 Red. masses --      1.5477                 1.5131                 1.4196
 Frc consts  --      0.6332                 0.6678                 0.6424
 IR Inten    --      7.9779                62.3675                 3.4818

                     31                     32                     33
                      A                      A                      A
 Frequencies --    954.8097               971.8927               985.9113
 Red. masses --      3.8307                 1.3048                 5.7206
 Frc consts  --      2.0576                 0.7262                 3.2762
 IR Inten    --     67.3380                 1.4655               143.5895

                     34                     35                     36
                      A                      A                      A
 Frequencies --   1004.3984              1040.0164              1149.6094
 Red. masses --      1.3077                 4.3557                 1.1904
 Frc consts  --      0.7773                 2.7758                 0.9269
 IR Inten    --     23.7282                64.7884               179.8690

                     37                     38                     39
                      A                      A                      A
 Frequencies --   1154.0206              1166.9979              1173.3044
 Red. masses --      1.6431                 1.5085                 1.2639
 Frc consts  --      1.2893                 1.2104                 1.0252
 IR Inten    --     99.3362              1222.0548                 0.8576

                     40                     41                     42
                      A                      A                      A
 Frequencies --   1199.1708              1224.7320              1241.4010
 Red. masses --      1.3095                 1.2872                 1.6658
 Frc consts  --      1.1095                 1.1376                 1.5125
 IR Inten    --     33.6689               170.0180                75.7692

                     43                     44                     45
                      A                      A                      A
 Frequencies --   1277.8823              1308.7943              1336.9001
 Red. masses --      2.1373                 1.7146                 2.6004
 Frc consts  --      2.0564                 1.7305                 2.7383
 IR Inten    --     30.2610                91.1953                64.5435

                     46                     47                     48
                      A                      A                      A
 Frequencies --   1357.1734              1368.5491              1426.5666
 Red. masses --      1.5172                 3.0069                 3.4850
 Frc consts  --      1.6466                 3.3181                 4.1787
 IR Inten    --    470.0091               202.4485               296.2964

                     49                     50                     51
                      A                      A                      A
 Frequencies --   1464.8885              1478.7374              1492.7796
 Red. masses --      4.3168                 1.7537                 1.8490
 Frc consts  --      5.4578                 2.2593                 2.4276
 IR Inten    --    309.9291                16.8423                23.8030

                     52                     53                     54
                      A                      A                      A
 Frequencies --   1502.5336              1506.3497              1560.6831
 Red. masses --      1.0438                 1.1522                 3.5553
 Frc consts  --      1.3885                 1.5404                 5.1022
 IR Inten    --     13.7955                35.8809               669.7884

                     55                     56                     57
                      A                      A                      A
 Frequencies --   1599.7504              1611.3726              1630.5946
 Red. masses --      4.6775                 4.3002                 4.2558
 Frc consts  --      7.0528                 6.5786                 6.6668
 IR Inten    --    510.2443                32.5160              1244.8404

                     58                     59                     60
                      A                      A                      A
 Frequencies --   1676.2735              3036.8056              3114.1303
 Red. masses --      5.3051                 1.0331                 1.1084
 Frc consts  --      8.7829                 5.6132                 6.3331
 IR Inten    --    412.0946                25.5150                18.7951

                     61                     62                     63
                      A                      A                      A
 Frequencies --   3177.7736              3181.1533              3217.8244
 Red. masses --      1.0900                 1.1027                 1.0891
 Frc consts  --      6.4853                 6.5746                 6.6439
 IR Inten    --      0.4107                 4.7273                 1.0834

                     64                     65                     66
                      A                      A                      A
 Frequencies --   3219.1030              3231.2775              3243.3168
 Red. masses --      1.0909                 1.0962                 1.0905
 Frc consts  --      6.6605                 6.7435                 6.7583
 IR Inten    --      2.7023                 0.5146                 1.3313

                     67                     68                     69
                      A                      A                      A
 Frequencies --   3718.0423              3773.2903              3782.7645
 Red. masses --      1.0654                 1.0680                 1.0662
 Frc consts  --      8.6771                 8.9589                 8.9891
 IR Inten    --    357.6071                63.7544               632.5814

 - Thermochemistry -
 -------------------
 Temperature   298.150 Kelvin.  Pressure   1.00000 Atm.
 Atom     1 has atomic number  6 and mass  12.00000

 Molecular mass:   195.06573 amu.
 Principal axes and moments of inertia in atomic units:
                           1         2         3
     Eigenvalues --  1181.791046349.814957515.98485
           X            0.99994   0.01091   0.00016
           Y           -0.01091   0.99994   0.00228
           Z           -0.00014  -0.00228   1.00000
 This molecule is an asymmetric top.
 Rotational symmetry number  1.
 Warning -- assumption of classical behavior for rotation
           may cause significant error
 Rotational temperatures (Kelvin)      0.07329     0.01364     0.01152
 Rotational constants (GHZ):           1.52712     0.28422     0.24012
 Zero-point vibrational energy     520012.1 (Joules/Mol)
                                  124.28588 (Kcal/Mol)
 Warning -- explicit consideration of  22 degrees of freedom as
           vibrations may cause significant error
 Vibrational temperatures:     71.43    87.61   125.71   133.26   209.53
          (Kelvin)            260.98   284.08   333.74   347.41   395.66
                              442.47   469.04   514.89   532.85   594.22
                              661.09   715.91   759.35   814.95   830.41
                              844.47   864.08   912.43   985.88  1036.01
                             1119.58  1195.26  1198.90  1245.29  1260.96
                             1373.76  1398.34  1418.50  1445.10  1496.35
                             1654.03  1660.38  1679.05  1688.12  1725.34
                             1762.11  1786.10  1838.59  1883.06  1923.50
                             1952.67  1969.03  2052.51  2107.65  2127.57
                             2147.77  2161.81  2167.30  2245.47  2301.68
                             2318.40  2346.06  2411.78  4369.28  4480.53
                             4572.10  4576.96  4629.73  4631.57  4649.08
                             4666.40  5349.43  5428.92  5442.55

 Zero-point correction=                           0.198062 (Hartree/Particle)
 Thermal correction to Energy=                    0.211598
 Thermal correction to Enthalpy=                  0.212542
 Thermal correction to Gibbs Free Energy=         0.157532
 Sum of electronic and zero-point Energies=           -688.188641
 Sum of electronic and thermal Energies=              -688.175105
 Sum of electronic and thermal Enthalpies=            -688.174161
 Sum of electronic and thermal Free Energies=         -688.229171

                     E (Thermal)             CV                S
                      KCal/Mol        Cal/Mol-Kelvin    Cal/Mol-Kelvin
 Total                  132.780             51.035            115.778
 Electronic               0.000              0.000              0.000
 Translational            0.889              2.981             41.710
 Rotational               0.889              2.981             32.400
 Vibrational            131.002             45.073             41.668
 Vibration     1          0.595              1.978              4.832
 Vibration     2          0.597              1.973              4.428
 Vibration     3          0.601              1.958              3.718
 Vibration     4          0.602              1.954              3.604
 Vibration     5          0.617              1.907              2.729
 Vibration     6          0.630              1.865              2.314
 Vibration     7          0.637              1.843              2.157
 Vibration     8          0.653              1.792              1.864
 Vibration     9          0.658              1.777              1.792
 Vibration    10          0.677              1.720              1.565
 Vibration    11          0.697              1.659              1.376
 Vibration    12          0.710              1.623              1.280
 Vibration    13          0.733              1.559              1.131
 Vibration    14          0.742              1.533              1.078
 Vibration    15          0.777              1.442              0.916
 Vibration    16          0.817              1.340              0.768
 Vibration    17          0.853              1.255              0.664
 Vibration    18          0.883              1.189              0.592
 Vibration    19          0.922              1.104              0.511
 Vibration    20          0.934              1.081              0.491
 Vibration    21          0.944              1.060              0.473
 Vibration    22          0.959              1.031              0.449

 Optimization completed.
    -- Stationary point found.
 Normal termination of Gaussian 09 at Tue Dec 17 16:51:23 2024.
