 Gaussian 09, Revision E.01,
 Gaussian 09:  ES64L-G09RevE.01 30-Nov-2015

 -----------------------------------------------------
 # opt freq b3pw91/6-31+g(d,p) EmpiricalDispersion=GD3
 -----------------------------------------------------

 ----------
 [No Title]
 ----------
 Symbolic Z-matrix:
 Charge =  0 Multiplicity = 1

 SCF Done:  E(RB3PW91) =  -687.759301496     A.U. after   16 cycles
 SCF Done:  E(RB3PW91) =  -687.759313798     A.U. after   11 cycles
 SCF Done:  E(RB3PW91) =  -687.759313557     A.U. after    9 cycles
 SCF Done:  E(RB3PW91) =  -687.759314512     A.U. after    9 cycles
 Optimization completed.
    -- Stationary point found.
 Normal termination of Gaussian 09 at Wed Dec 18 18:49:01 2024.

 ----------------------------------------------------------------------
 #N Geom=AllCheck Guess=TCheck SCRF=Check GenChk RB3PW91/6-31+G(d,p) Fr
 eq
 ----------------------------------------------------------------------

 Structure from the checkpoint file:  "B3PW91D3FA.chk"
 ----------
 [No Title]
 ----------
 Charge =  0 Multiplicity = 1

                         Standard orientation:
 ---------------------------------------------------------------------
 Center     Atomic      Atomic             Coordinates (Angstroms)
 Number     Number       Type             X           Y           Z
 ---------------------------------------------------------------------
      1          6           0        1.461738   -2.012391   -0.000785
      2          6           0        2.494863   -1.079336   -0.000545
      3          6           0        2.189126    0.296117   -0.000130
      4          6           0        0.866195    0.712832    0.000058
      5          6           0       -0.186109   -0.227046   -0.000167
      6          6           0        0.137125   -1.592825   -0.000604
      7          8           0        3.779991   -1.498622   -0.000731
      8          6           0       -1.557307    0.269845    0.000062
      9          6           0       -2.695588   -0.451905    0.000524
     10          8           0        3.290189    1.104878    0.000058
     11          6           0        3.096373    2.509757    0.000607
     12          6           0       -4.075593    0.077392    0.001004
     13          8           0       -5.040182   -0.655165    0.003472
     14          8           0       -4.269039    1.423432   -0.002284
     15          1           0        1.718548   -3.066593   -0.001126
     16          1           0        0.630577    1.772211    0.000405
     17          1           0       -0.647714   -2.341437   -0.000830
     18          1           0        4.354398   -0.718624   -0.000506
     19          1           0       -1.622306    1.360735    0.000115
     20          1           0       -2.677711   -1.536667    0.001096
     21          1           0        4.093355    2.951401    0.000724
     22          1           0        2.554300    2.834087   -0.896691
     23          1           0        2.554389    2.833397    0.898206
     24          1           0       -3.430448    1.900681   -0.005657
 ---------------------------------------------------------------------

 SCF Done:  E(RB3PW91) =  -687.759314512     A.U. after    1 cycles

 The electronic state is 1-A.
 Alpha  occ. eigenvalues --  -19.21465 -19.19903 -19.19381 -19.12858 -10.31027
 Alpha  occ. eigenvalues --  -10.26569 -10.26506 -10.25802 -10.22715 -10.21584
 Alpha  occ. eigenvalues --  -10.21195 -10.20483 -10.20417 -10.20122  -1.11835
 Alpha  occ. eigenvalues --   -1.10943  -1.08763  -1.02468  -0.89145  -0.82992
 Alpha  occ. eigenvalues --   -0.78900  -0.77265  -0.73206  -0.67973  -0.64129
 Alpha  occ. eigenvalues --   -0.62944  -0.60593  -0.58783  -0.55792  -0.53399
 Alpha  occ. eigenvalues --   -0.51904  -0.50540  -0.48753  -0.47361  -0.45672
 Alpha  occ. eigenvalues --   -0.45096  -0.45017  -0.44214  -0.43284  -0.41212
 Alpha  occ. eigenvalues --   -0.40498  -0.38513  -0.38486  -0.37680  -0.36804
 Alpha  occ. eigenvalues --   -0.36662  -0.32605  -0.30636  -0.27979  -0.26960
 Alpha  occ. eigenvalues --   -0.23131
 Alpha virt. eigenvalues --   -0.08255  -0.02784  -0.01157  -0.00074   0.00530
 Alpha virt. eigenvalues --    0.00910   0.02043   0.03824   0.04131   0.04422
 Alpha virt. eigenvalues --    0.05707   0.05908   0.06441   0.06752   0.07715

 Mulliken charges:
               1
     1  C    0.246330
     2  C   -0.373138
     3  C    0.094814
     4  C   -0.388095
     5  C    0.296691
     6  C   -0.319105
     7  O   -0.498392
     8  C   -0.144329
     9  C    0.239704
    10  O   -0.405640
    11  C   -0.172320
    12  C    0.320593
    13  O   -0.435868
    14  O   -0.411411
    15  H    0.170611
    16  H    0.141463
    17  H    0.151117
    18  H    0.394143
    19  H    0.098062
    20  H    0.162189
    21  H    0.171457
    22  H    0.164118
    23  H    0.164133
    24  H    0.332873
 Sum of Mulliken charges =  -0.00000

 Dipole moment (field-independent basis, Debye):
    X=              6.8997    Y=              3.7736    Z=             -0.0081  Tot=              7.8642
 Quadrupole moment (field-independent basis, Debye-Ang):
   XX=           -114.3910   YY=            -70.1363   ZZ=            -84.5050
   XY=              5.5407   XZ=              0.0415   YZ=             -0.0036

  Exact polarizability: 239.098   3.881 138.784  -0.040  -0.012  72.525
 Approx polarizability: 363.734   9.826 218.985  -0.087  -0.035 105.832

 ******    1 imaginary frequencies (negative Signs) ******

                      1                      2                      3
                      A                      A                      A
 Frequencies --    -78.0201                17.5469                69.1460
 Red. masses --      2.3308                 4.4219                 4.7953
 Frc consts  --      0.0084                 0.0008                 0.0135
 IR Inten    --     20.1489                 1.1265                 6.3513

                      4                      5                      6
                      A                      A                      A
 Frequencies --     76.1900                85.6733               164.3902
 Red. masses --      3.7359                 6.0970                 4.6041
 Frc consts  --      0.0128                 0.0264                 0.0733
 IR Inten    --      1.0819                 3.8784                 0.6589

                      7                      8                      9
                      A                      A                      A
 Frequencies --    200.5497               222.1818               233.3752
 Red. masses --      3.9360                 1.7616                 7.1996
 Frc consts  --      0.0933                 0.0512                 0.2310
 IR Inten    --      3.9303                 0.0005                 7.0805

                     10                     11                     12
                      A                      A                      A
 Frequencies --    290.0968               301.8499               354.5692
 Red. masses --      1.7152                 6.1656                 2.9463
 Frc consts  --      0.0850                 0.3310                 0.2182
 IR Inten    --      0.1470                 8.0898                13.6977

                     13                     14                     15
                      A                      A                      A
 Frequencies --    361.7804               388.6786               455.7187
 Red. masses --      4.6963                 1.4920                 2.8978
 Frc consts  --      0.3622                 0.1328                 0.3546
 IR Inten    --      4.2666                68.5536                11.8725

                     16                     17                     18
                      A                      A                      A
 Frequencies --    484.7884               489.2857               527.2436
 Red. masses --      1.1151                 5.3300                 6.0633
 Frc consts  --      0.1544                 0.7518                 0.9931
 IR Inten    --    102.0648                 0.9551                 1.5702

                     19                     20                     21
                      A                      A                      A
 Frequencies --    577.5283               582.4256               583.9261
 Red. masses --      4.0904                 7.2534                 3.7613
 Frc consts  --      0.8038                 1.4497                 0.7556
 IR Inten    --     11.3818                28.1031                 9.1966

                     22                     23                     24
                      A                      A                      A
 Frequencies --    654.2054               702.6601               725.8282
 Red. masses --      5.7029                 4.7966                 4.5273
 Frc consts  --      1.4381                 1.3953                 1.4053
 IR Inten    --      3.2218                 0.0335                 0.0523

                     25                     26                     27
                      A                      A                      A
 Frequencies --    779.0915               825.6027               828.5915
 Red. masses --      5.8491                 5.4165                 1.4695
 Frc consts  --      2.0918                 2.1753                 0.5944
 IR Inten    --     10.2595                12.5213                16.9992

                     28                     29                     30
                      A                      A                      A
 Frequencies --    846.2090               881.4431               922.0297
 Red. masses --      1.6020                 2.0633                 5.2164
 Frc consts  --      0.6759                 0.9445                 2.6128
 IR Inten    --     36.4289                 0.2950                30.9569

                     31                     32                     33
                      A                      A                      A
 Frequencies --    950.9354               964.7705               987.3966
 Red. masses --      1.3104                 3.6504                 1.1227
 Frc consts  --      0.6982                 2.0019                 0.6449
 IR Inten    --      5.5078                 7.6434                42.7946

                     34                     35                     36
                      A                      A                      A
 Frequencies --   1072.3699              1158.5439              1172.6914
 Red. masses --      3.9096                 1.6189                 1.4884
 Frc consts  --      2.6490                 1.2803                 1.2060
 IR Inten    --     40.9358                32.8549                54.9978

                     37                     38                     39
                      A                      A                      A
 Frequencies --   1174.0879              1198.5970              1219.3163
 Red. masses --      1.2731                 1.4296                 1.6461
 Frc consts  --      1.0340                 1.2101                 1.4419
 IR Inten    --      0.5146                21.4782               213.5548

                     40                     41                     42
                      A                      A                      A
 Frequencies --   1229.2115              1272.4298              1303.6342
 Red. masses --      1.4078                 2.3480                 1.9362
 Frc consts  --      1.2533                 2.2398                 1.9387
 IR Inten    --     69.0616                63.4030               134.8541

                     43                     44                     45
                      A                      A                      A
 Frequencies --   1318.6458              1325.8525              1353.3760
 Red. masses --      1.9701                 1.9806                 4.0620
 Frc consts  --      2.0184                 2.0514                 4.3836
 IR Inten    --    346.0384               387.9292               179.9098

                     46                     47                     48
                      A                      A                      A
 Frequencies --   1367.8309              1429.2832              1469.4192
 Red. masses --      1.5270                 2.9439                 2.0279
 Frc consts  --      1.6833                 3.5433                 2.5798
 IR Inten    --     16.1334                29.1963                11.1990

                     49                     50                     51
                      A                      A                      A
 Frequencies --   1489.7566              1496.5308              1507.3769
 Red. masses --      1.6335                 1.0424                 1.1030
 Frc consts  --      2.1360                 1.3754                 1.4766
 IR Inten    --     24.0998                10.7007                50.6858

                     52                     53                     54
                      A                      A                      A
 Frequencies --   1569.1755              1645.2624              1666.1087
 Red. masses --      3.6818                 5.9052                 6.4290
 Frc consts  --      5.3414                 9.4179                10.5148
 IR Inten    --    296.5309               176.2265                88.7249

                     55                     56                     57
                      A                      A                      A
 Frequencies --   1699.2661              1820.7571              3025.9940
 Red. masses --      5.6422                10.0017                 1.0339
 Frc consts  --      9.5990                19.5357                 5.5778
 IR Inten    --     56.3842               559.5988                46.1475

                     58                     59                     60
                      A                      A                      A
 Frequencies --   3100.8790              3118.6199              3171.2873
 Red. masses --      1.1069                 1.0879                 1.1012
 Frc consts  --      6.2711                 6.2340                 6.5253
 IR Inten    --     28.8808                33.7883                15.6436

                     61                     62                     63
                      A                      A                      A
 Frequencies --   3213.1066              3216.3321              3226.8832
 Red. masses --      1.0901                 1.0886                 1.0910
 Frc consts  --      6.6308                 6.6352                 6.6931
 IR Inten    --      5.7845                 4.4442                 0.8216

                     64                     65                     66
                      A                      A                      A
 Frequencies --   3233.2377              3794.5696              3846.9735
 Red. masses --      1.0943                 1.0653                 1.0656
 Frc consts  --      6.7400                 9.0377                 9.2911
 IR Inten    --      4.4012               162.1724                16.7708

 - Thermochemistry -
 -------------------
 Temperature   298.150 Kelvin.  Pressure   1.00000 Atm.
 Atom     1 has atomic number  6 and mass  12.00000

 Molecular mass:   194.05791 amu.
 Principal axes and moments of inertia in atomic units:
                           1         2         3
     Eigenvalues --  1168.787566334.648117491.83854
           X            0.99994   0.01124   0.00013
           Y           -0.01124   0.99994   0.00005
           Z           -0.00013  -0.00005   1.00000
 This molecule is an asymmetric top.
 Rotational symmetry number  1.
 Warning -- assumption of classical behavior for rotation
           may cause significant error
 Rotational temperatures (Kelvin)      0.07411     0.01367     0.01156
 Rotational constants (GHZ):           1.54411     0.28490     0.24089
    1 imaginary frequencies ignored.
 Zero-point vibrational energy     487138.0 (Joules/Mol)
                                  116.42878 (Kcal/Mol)
 Warning -- explicit consideration of  20 degrees of freedom as
           vibrations may cause significant error
 Vibrational temperatures:     25.25    99.49   109.62   123.26   236.52
          (Kelvin)            288.55   319.67   335.77   417.38   434.29
                              510.15   520.52   559.22   655.68   697.50
                              703.97   758.58   830.93   837.98   840.14
                              941.25  1010.97  1044.30  1120.94  1187.86
                             1192.16  1217.50  1268.20  1326.59  1368.18
                             1388.09  1420.64  1542.90  1666.88  1687.24
                             1689.25  1724.51  1754.32  1768.56  1830.74
                             1875.64  1897.23  1907.60  1947.20  1968.00
                             2056.42  2114.16  2143.42  2153.17  2168.78
                             2257.69  2367.16  2397.16  2444.86  2619.66
                             4353.72  4461.47  4486.99  4562.77  4622.94
                             4627.58  4642.76  4651.90  5459.53  5534.93

 Zero-point correction=                           0.185541 (Hartree/Particle)
 Thermal correction to Energy=                    0.198257
 Thermal correction to Enthalpy=                  0.199201
 Thermal correction to Gibbs Free Energy=         0.144776
 Sum of electronic and zero-point Energies=           -687.573773
 Sum of electronic and thermal Energies=              -687.561057
 Sum of electronic and thermal Enthalpies=            -687.560113
 Sum of electronic and thermal Free Energies=         -687.614539

                     E (Thermal)             CV                S
                      KCal/Mol        Cal/Mol-Kelvin    Cal/Mol-Kelvin
 Total                  124.408             47.694            114.548
 Electronic               0.000              0.000              0.000
 Translational            0.889              2.981             41.694
 Rotational               0.889              2.981             32.384
 Vibrational            122.631             41.732             40.470
 Vibration     1          0.593              1.986              6.894
 Vibration     2          0.598              1.969              4.178
 Vibration     3          0.599              1.965              3.987
 Vibration     4          0.601              1.959              3.757
 Vibration     5          0.623              1.886              2.499
 Vibration     6          0.638              1.839              2.128
 Vibration     7          0.648              1.807              1.941
 Vibration     8          0.654              1.790              1.853
 Vibration     9          0.686              1.692              1.473
 Vibration    10          0.694              1.670              1.407
 Vibration    11          0.730              1.566              1.146
 Vibration    12          0.736              1.551              1.114
 Vibration    13          0.757              1.494              1.005
 Vibration    14          0.814              1.348              0.779
 Vibration    15          0.841              1.284              0.697
 Vibration    16          0.845              1.274              0.685
 Vibration    17          0.882              1.190              0.593
 Vibration    18          0.934              1.080              0.490
 Vibration    19          0.939              1.069              0.481
 Vibration    20          0.941              1.066              0.478

 Normal termination of Gaussian 09 at Wed Dec 18 18:53:30 2024.
