 Gaussian 09, Revision E.01,
 Gaussian 09:  ES64L-G09RevE.01 30-Nov-2015

 -----------------------------------------------------
 # opt freq b3pw91/6-31+g(d,p) EmpiricalDispersion=GD3
 -----------------------------------------------------

 ----------
 [No Title]
 ----------
 Symbolic Z-matrix:
 Charge =  1 Multiplicity = 1

 SCF Done:  E(RB3PW91) =  -688.120503621     A.U. after   15 cycles
 SCF Done:  E(RB3PW91) =  -688.120514262     A.U. after   10 cycles
 SCF Done:  E(RB3PW91) =  -688.120515273     A.U. after    9 cycles
 SCF Done:  E(RB3PW91) =  -688.120515728     A.U. after    9 cycles
 SCF Done:  E(RB3PW91) =  -688.120516075     A.U. after    9 cycles
 SCF Done:  E(RB3PW91) =  -688.120516425     A.U. after    9 cycles
 SCF Done:  E(RB3PW91) =  -688.120516597     A.U. after    9 cycles
 Optimization completed.
    -- Stationary point found.
 Normal termination of Gaussian 09 at Wed Dec 18 19:42:30 2024.

 ----------------------------------------------------------------------
 #N Geom=AllCheck Guess=TCheck SCRF=Check GenChk RB3PW91/6-31+G(d,p) Fr
 eq
 ----------------------------------------------------------------------

 Structure from the checkpoint file:  "B3PW91D3FAyang.chk"
 ----------
 [No Title]
 ----------
 Charge =  1 Multiplicity = 1

                         Standard orientation:
 ---------------------------------------------------------------------
 Center     Atomic      Atomic             Coordinates (Angstroms)
 Number     Number       Type             X           Y           Z
 ---------------------------------------------------------------------
      1          6           0        1.473890   -2.026495   -0.024127
      2          6           0        2.514676   -1.085430   -0.011929
      3          6           0        2.229695    0.310521    0.005012
      4          6           0        0.919990    0.734523    0.011175
      5          6           0       -0.146431   -0.212841    0.001671
      6          6           0        0.165552   -1.598638   -0.018881
      7          8           0        3.769806   -1.510556   -0.017887
      8          6           0       -1.472960    0.275039    0.009493
      9          6           0       -2.644889   -0.469601    0.018217
     10          6           0       -3.893817    0.136317    0.000161
     11          8           0       -4.960458   -0.632555    0.107953
     12          8           0       -4.012758    1.446917   -0.133368
     13          8           0        3.341582    1.076660    0.013283
     14          6           0        3.201510    2.497380    0.031615
     15          1           0        1.733147   -3.079437   -0.039556
     16          1           0        0.687019    1.793869    0.024313
     17          1           0       -0.625965   -2.339512   -0.031542
     18          1           0        4.374033   -0.748266   -0.008760
     19          1           0       -1.585752    1.358411    0.008650
     20          1           0       -2.655357   -1.552164    0.040607
     21          1           0       -5.800616   -0.203221   -0.111274
     22          1           0       -4.879212    1.800970    0.114649
     23          1           0        4.215339    2.895153    0.035551
     24          1           0        2.673311    2.844473   -0.863567
     25          1           0        2.675372    2.821340    0.936641
 ---------------------------------------------------------------------

 SCF Done:  E(RB3PW91) =  -688.120516597     A.U. after    1 cycles

 The electronic state is 1-A.
 Alpha  occ. eigenvalues --  -19.38318 -19.38157 -19.32449 -19.32053 -10.50359
 Alpha  occ. eigenvalues --  -10.39997 -10.38428 -10.37100 -10.34935 -10.34208
 Alpha  occ. eigenvalues --  -10.34199 -10.33461 -10.33352 -10.32144  -1.32176
 Alpha  occ. eigenvalues --   -1.24500  -1.23765  -1.20718  -1.01760  -0.97864
 Alpha  occ. eigenvalues --   -0.92085  -0.90758  -0.85933  -0.83651  -0.80529
 Alpha  occ. eigenvalues --   -0.78693  -0.75543  -0.72665  -0.70691  -0.67803
 Alpha  occ. eigenvalues --   -0.65704  -0.64582  -0.64193  -0.62698  -0.60779
 Alpha  occ. eigenvalues --   -0.59449  -0.58525  -0.57068  -0.56038  -0.55959
 Alpha  occ. eigenvalues --   -0.55533  -0.53624  -0.53367  -0.52435  -0.51184
 Alpha  occ. eigenvalues --   -0.48774  -0.47942  -0.47867  -0.44037  -0.39137
 Alpha  occ. eigenvalues --   -0.35740
 Alpha virt. eigenvalues --   -0.24945  -0.15105  -0.14308  -0.14189  -0.09601
 Alpha virt. eigenvalues --   -0.09023  -0.08554  -0.08402  -0.07745  -0.06497
 Alpha virt. eigenvalues --   -0.05387  -0.05155  -0.04424  -0.03913  -0.03720

 Mulliken charges:
               1
     1  C    0.168635
     2  C   -0.329565
     3  C    0.112513
     4  C   -0.183448
     5  C    0.290046
     6  C   -0.259308
     7  O   -0.430958
     8  C    0.069792
     9  C   -0.641313
    10  C    0.939358
    11  O   -0.391784
    12  O   -0.441783
    13  O   -0.398480
    14  C   -0.165654
    15  H    0.201360
    16  H    0.169836
    17  H    0.167962
    18  H    0.414158
    19  H    0.186127
    20  H    0.188152
    21  H    0.392937
    22  H    0.395242
    23  H    0.195470
    24  H    0.175424
    25  H    0.175281
 Sum of Mulliken charges =   1.00000

 Dipole moment (field-independent basis, Debye):
    X=             -7.6587    Y=              3.4646    Z=              0.0756  Tot=              8.4063
 Quadrupole moment (field-independent basis, Debye-Ang):
   XX=              9.8928   YY=            -61.0623   ZZ=            -82.4438
   XY=             -2.4451   XZ=              0.3039   YZ=              1.2383

  Exact polarizability: 313.811 -19.427 133.116  -0.485   0.047  68.160
 Approx polarizability: 577.675 -69.294 213.738  -1.590  -0.280 100.226

                      1                      2                      3
                      A                      A                      A
 Frequencies --     48.4598                60.3413                86.3227
 Red. masses --      6.3401                 5.7756                 5.1614
 Frc consts  --      0.0088                 0.0124                 0.0227
 IR Inten    --      0.4336                 2.0177                 0.9528

                      4                      5                      6
                      A                      A                      A
 Frequencies --     92.7656               144.7068               178.9537
 Red. masses --      3.2979                 5.2126                 2.6726
 Frc consts  --      0.0167                 0.0643                 0.0504
 IR Inten    --      5.5433                 2.6188                25.0082

                      7                      8                      9
                      A                      A                      A
 Frequencies --    196.1661               230.3449               239.2164
 Red. masses --      3.6618                 5.0715                 1.3193
 Frc consts  --      0.0830                 0.1585                 0.0445
 IR Inten    --      7.9914                20.5791                50.4482

                     10                     11                     12
                      A                      A                      A
 Frequencies --    271.8112               306.4351               326.7195
 Red. masses --      1.3714                 5.3416                 3.0692
 Frc consts  --      0.0597                 0.2955                 0.1930
 IR Inten    --    100.6173                 0.2741                16.3623

                     13                     14                     15
                      A                      A                      A
 Frequencies --    356.3550               369.3599               420.8134
 Red. masses --      4.6833                 2.1313                 1.1893
 Frc consts  --      0.3504                 0.1713                 0.1241
 IR Inten    --     11.9220                27.2343               255.0174

                     16                     17                     18
                      A                      A                      A
 Frequencies --    458.6060               497.4694               527.9130
 Red. masses --      3.1936                 5.8331                 5.4847
 Frc consts  --      0.3957                 0.8505                 0.9006
 IR Inten    --      0.3749                 9.6741                10.0687

                     19                     20                     21
                      A                      A                      A
 Frequencies --    567.1781               578.1084               587.7539
 Red. masses --      4.8004                 2.4563                 3.6805
 Frc consts  --      0.9098                 0.4837                 0.7491
 IR Inten    --     42.1031                46.3075                13.3827

                     22                     23                     24
                      A                      A                      A
 Frequencies --    605.8939               634.8209               691.5615
 Red. masses --      1.3139                 4.5298                 5.1768
 Frc consts  --      0.2842                 1.0756                 1.4587
 IR Inten    --     75.8534                 6.0449                 4.5404

                     25                     26                     27
                      A                      A                      A
 Frequencies --    724.0167               782.1428               830.3697
 Red. masses --      5.0788                 5.6587                 1.5651
 Frc consts  --      1.5686                 2.0396                 0.6358
 IR Inten    --      0.5161                16.7792                 7.2113

                     28                     29                     30
                      A                      A                      A
 Frequencies --    833.3929               861.2574               871.6999
 Red. masses --      5.4213                 1.5249                 1.4252
 Frc consts  --      2.2185                 0.6664                 0.6381
 IR Inten    --      1.4253                66.6358                 3.2300

                     31                     32                     33
                      A                      A                      A
 Frequencies --    962.9075               969.3629               996.2678
 Red. masses --      3.5589                 1.3083                 3.9740
 Frc consts  --      1.9442                 0.7243                 2.3239
 IR Inten    --     61.3500                 1.8469               119.6713

                     34                     35                     36
                      A                      A                      A
 Frequencies --   1000.7982              1054.7035              1148.9443
 Red. masses --      1.4336                 4.1528                 1.1422
 Frc consts  --      0.8460                 2.7218                 0.8884
 IR Inten    --     25.7219                56.9652               180.1549

                     37                     38                     39
                      A                      A                      A
 Frequencies --   1158.3058              1170.9586              1172.3979
 Red. masses --      1.6374                 1.4978                 1.2696
 Frc consts  --      1.2943                 1.2100                 1.0282
 IR Inten    --     79.5430              1209.8528                 1.1827

                     40                     41                     42
                      A                      A                      A
 Frequencies --   1199.3915              1224.5479              1241.6633
 Red. masses --      1.3241                 1.2747                 1.5263
 Frc consts  --      1.1222                 1.1262                 1.3865
 IR Inten    --     23.2068               144.4983                59.3268

                     43                     44                     45
                      A                      A                      A
 Frequencies --   1283.9062              1310.9458              1342.7853
 Red. masses --      1.9046                 1.8788                 2.5262
 Frc consts  --      1.8498                 1.9024                 2.6837
 IR Inten    --     25.5163                90.7058                55.9272

                     46                     47                     48
                      A                      A                      A
 Frequencies --   1353.6396              1382.3141              1438.4750
 Red. masses --      1.3609                 3.8208                 3.4420
 Frc consts  --      1.4692                 4.3015                 4.1963
 IR Inten    --    289.3031               369.5270               234.9220

                     49                     50                     51
                      A                      A                      A
 Frequencies --   1478.9215              1484.9898              1499.0935
 Red. masses --      1.4473                 3.1610                 1.0887
 Frc consts  --      1.8651                 4.1070                 1.4415
 IR Inten    --     28.9289               278.2521                30.3359

                     52                     53                     54
                      A                      A                      A
 Frequencies --   1499.3152              1510.7493              1574.0441
 Red. masses --      1.2703                 2.6317                 4.0423
 Frc consts  --      1.6824                 3.5390                 5.9009
 IR Inten    --     89.2890                14.4571               795.0901

                     55                     56                     57
                      A                      A                      A
 Frequencies --   1611.9396              1623.4579              1645.0620
 Red. masses --      4.9904                 4.5760                 4.6823
 Frc consts  --      7.6399                 7.1059                 7.4658
 IR Inten    --    548.8579                20.9708              1288.4077

                     58                     59                     60
                      A                      A                      A
 Frequencies --   1690.3246              3042.5055              3126.4245
 Red. masses --      5.6886                 1.0333                 1.1082
 Frc consts  --      9.5762                 5.6357                 6.3823
 IR Inten    --    377.2380                25.6629                17.1715

                     61                     62                     63
                      A                      A                      A
 Frequencies --   3185.1305              3194.0720              3226.2051
 Red. masses --      1.0903                 1.1027                 1.0914
 Frc consts  --      6.5169                 6.6284                 6.6927
 IR Inten    --      0.4458                 4.0087                 2.0877

                     64                     65                     66
                      A                      A                      A
 Frequencies --   3228.3249              3242.7673              3253.2801
 Red. masses --      1.0891                 1.0967                 1.0910
 Frc consts  --      6.6875                 6.7948                 6.8031
 IR Inten    --      1.5670                 0.5606                 1.7077

                     67                     68                     69
                      A                      A                      A
 Frequencies --   3740.9481              3807.2319              3816.8235
 Red. masses --      1.0653                 1.0680                 1.0663
 Frc consts  --      8.7840                 9.1207                 9.1520
 IR Inten    --    357.0483                75.1630               652.4670

 - Thermochemistry -
 -------------------
 Temperature   298.150 Kelvin.  Pressure   1.00000 Atm.
 Atom     1 has atomic number  6 and mass  12.00000

 Molecular mass:   195.06573 amu.
 Principal axes and moments of inertia in atomic units:
                           1         2         3
     Eigenvalues --  1174.016766319.722327478.19213
           X            0.99994   0.01088   0.00016
           Y           -0.01088   0.99994   0.00219
           Z           -0.00013  -0.00219   1.00000
 This molecule is an asymmetric top.
 Rotational symmetry number  1.
 Warning -- assumption of classical behavior for rotation
           may cause significant error
 Rotational temperatures (Kelvin)      0.07378     0.01371     0.01158
 Rotational constants (GHZ):           1.53724     0.28557     0.24133
 Zero-point vibrational energy     522019.7 (Joules/Mol)
                                  124.76571 (Kcal/Mol)
 Warning -- explicit consideration of  22 degrees of freedom as
           vibrations may cause significant error
 Vibrational temperatures:     69.72    86.82   124.20   133.47   208.20
          (Kelvin)            257.47   282.24   331.41   344.18   391.08
                              440.89   470.08   512.71   531.43   605.46
                              659.83   715.75   759.55   816.04   831.77
                              845.65   871.75   913.36   995.00  1041.70
                             1125.33  1194.72  1199.07  1239.16  1254.18
                             1385.41  1394.70  1433.41  1439.92  1517.48
                             1653.07  1666.54  1684.75  1686.82  1725.65
                             1761.85  1786.47  1847.25  1886.16  1931.97
                             1947.58  1988.84  2069.64  2127.84  2136.57
                             2156.86  2157.18  2173.63  2264.70  2319.22
                             2335.79  2366.87  2432.00  4377.48  4498.22
                             4582.69  4595.55  4641.78  4644.83  4665.61
                             4680.74  5382.38  5477.75  5491.55

 Zero-point correction=                           0.198827 (Hartree/Particle)
 Thermal correction to Energy=                    0.212367
 Thermal correction to Enthalpy=                  0.213312
 Thermal correction to Gibbs Free Energy=         0.158247
 Sum of electronic and zero-point Energies=           -687.921690
 Sum of electronic and thermal Energies=              -687.908149
 Sum of electronic and thermal Enthalpies=            -687.907205
 Sum of electronic and thermal Free Energies=         -687.962269

                     E (Thermal)             CV                S
                      KCal/Mol        Cal/Mol-Kelvin    Cal/Mol-Kelvin
 Total                  133.263             50.946            115.893
 Electronic               0.000              0.000              0.000
 Translational            0.889              2.981             41.710
 Rotational               0.889              2.981             32.384
 Vibrational            131.485             44.984             41.799
 Vibration     1          0.595              1.978              4.879
 Vibration     2          0.597              1.973              4.446
 Vibration     3          0.601              1.959              3.742
 Vibration     4          0.602              1.954              3.601
 Vibration     5          0.616              1.908              2.741
 Vibration     6          0.629              1.868              2.339
 Vibration     7          0.636              1.845              2.169
 Vibration     8          0.652              1.795              1.876
 Vibration     9          0.657              1.780              1.809
 Vibration    10          0.675              1.725              1.585
 Vibration    11          0.697              1.661              1.382
 Vibration    12          0.710              1.622              1.276
 Vibration    13          0.732              1.562              1.138
 Vibration    14          0.742              1.535              1.082
 Vibration    15          0.783              1.425              0.889
 Vibration    16          0.817              1.342              0.770
 Vibration    17          0.853              1.256              0.664
 Vibration    18          0.883              1.188              0.592
 Vibration    19          0.923              1.102              0.510
 Vibration    20          0.935              1.079              0.489
 Vibration    21          0.945              1.058              0.471
 Vibration    22          0.965              1.019              0.440

 Normal termination of Gaussian 09 at Wed Dec 18 19:44:26 2024.
