 Gaussian 09, Revision E.01,
 Gaussian 09:  ES64L-G09RevE.01 30-Nov-2015

 --------------------------------------------------------
 # opt freq cam-b3lyp/6-31+g(d,p) empiricaldispersion=gd3
 --------------------------------------------------------

 ----------
 [No Title]
 ----------
 Symbolic Z-matrix:
 Charge =  1 Multiplicity = 1

 SCF Done:  E(RCAM-B3LYP) =  -688.054238792     A.U. after   16 cycles
 SCF Done:  E(RCAM-B3LYP) =  -688.054436119     A.U. after   12 cycles
 SCF Done:  E(RCAM-B3LYP) =  -688.054443400     A.U. after   11 cycles
 SCF Done:  E(RCAM-B3LYP) =  -688.054444175     A.U. after   10 cycles
 SCF Done:  E(RCAM-B3LYP) =  -688.054444762     A.U. after   11 cycles
 SCF Done:  E(RCAM-B3LYP) =  -688.054445179     A.U. after   11 cycles
 SCF Done:  E(RCAM-B3LYP) =  -688.054445641     A.U. after   10 cycles
 SCF Done:  E(RCAM-B3LYP) =  -688.054445955     A.U. after    9 cycles
 Optimization completed.
    -- Stationary point found.
 Normal termination of Gaussian 09 at Tue Dec 17 17:15:28 2024.

 ----------------------------------------------------------------------
 #N Geom=AllCheck Guess=TCheck SCRF=Check GenChk RCAM-B3LYP/6-31+G(d,p)
  Freq
 ----------------------------------------------------------------------

 Structure from the checkpoint file:  "camb3lypD3FAyang.chk"
 ----------
 [No Title]
 ----------
 Charge =  1 Multiplicity = 1

                         Standard orientation:
 ---------------------------------------------------------------------
 Center     Atomic      Atomic             Coordinates (Angstroms)
 Number     Number       Type             X           Y           Z
 ---------------------------------------------------------------------
      1          6           0        1.471279   -2.023959   -0.022022
      2          6           0        2.506489   -1.083828   -0.011036
      3          6           0        2.222078    0.307245    0.004408
      4          6           0        0.917364    0.731147    0.010533
      5          6           0       -0.146171   -0.215872    0.002316
      6          6           0        0.164627   -1.596699   -0.017242
      7          8           0        3.763357   -1.502834   -0.016630
      8          6           0       -1.471669    0.268319    0.009695
      9          6           0       -2.639717   -0.476344    0.019332
     10          6           0       -3.881994    0.135230    0.000230
     11          8           0       -4.952500   -0.622769    0.094368
     12          8           0       -3.994423    1.444244   -0.119575
     13          8           0        3.334342    1.076199    0.011617
     14          6           0        3.192335    2.494879    0.028462
     15          1           0        1.731475   -3.075658   -0.036358
     16          1           0        0.684257    1.789306    0.022607
     17          1           0       -0.627033   -2.336133   -0.028780
     18          1           0        4.369185   -0.741779   -0.008427
     19          1           0       -1.586122    1.350536    0.007412
     20          1           0       -2.650937   -1.557604    0.042311
     21          1           0       -5.797572   -0.186502   -0.092757
     22          1           0       -4.868440    1.806498    0.089675
     23          1           0        4.203507    2.896375    0.031767
     24          1           0        2.662627    2.838347   -0.865720
     25          1           0        2.665127    2.817183    0.931962
 ---------------------------------------------------------------------

 SCF Done:  E(RCAM-B3LYP) =  -688.054445955     A.U. after    1 cycles

 The electronic state is 1-A.
 Alpha  occ. eigenvalues --  -19.47112 -19.46886 -19.40070 -19.39613 -10.60090
 Alpha  occ. eigenvalues --  -10.48485 -10.46714 -10.46388 -10.43383 -10.42666
 Alpha  occ. eigenvalues --  -10.42306 -10.41996 -10.41895 -10.40305  -1.40577
 Alpha  occ. eigenvalues --   -1.32549  -1.31007  -1.27812  -1.09883  -1.06001
 Alpha  occ. eigenvalues --   -0.99836  -0.98340  -0.93415  -0.90984  -0.87994
 Alpha  occ. eigenvalues --   -0.86004  -0.82709  -0.79637  -0.77645  -0.74998
 Alpha  occ. eigenvalues --   -0.72661  -0.71979  -0.71039  -0.69528  -0.67594
 Alpha  occ. eigenvalues --   -0.66098  -0.65098  -0.63613  -0.62673  -0.62581
 Alpha  occ. eigenvalues --   -0.62174  -0.60620  -0.59792  -0.58765  -0.57629
 Alpha  occ. eigenvalues --   -0.54835  -0.53957  -0.53877  -0.49752  -0.44173
 Alpha  occ. eigenvalues --   -0.40110
 Alpha virt. eigenvalues --   -0.20974  -0.13056  -0.09367  -0.09223  -0.07637
 Alpha virt. eigenvalues --   -0.06699  -0.06260  -0.05943  -0.04515  -0.04198
 Alpha virt. eigenvalues --   -0.03189  -0.03054  -0.02265  -0.01966  -0.01776

 Mulliken charges:
               1
     1  C    0.077482
     2  C   -0.071428
     3  C    0.350957
     4  C   -0.377954
     5  C    0.152991
     6  C   -0.214731
     7  O   -0.475074
     8  C    0.193051
     9  C   -0.729343
    10  C    1.024589
    11  O   -0.416865
    12  O   -0.468765
    13  O   -0.466199
    14  C   -0.128977
    15  H    0.183635
    16  H    0.151523
    17  H    0.148478
    18  H    0.415835
    19  H    0.174223
    20  H    0.171205
    21  H    0.395371
    22  H    0.399516
    23  H    0.182818
    24  H    0.163877
    25  H    0.163786
 Sum of Mulliken charges =   1.00000

 Dipole moment (field-independent basis, Debye):
    X=             -8.4154    Y=              3.6625    Z=              0.0630  Tot=              9.1781
 Quadrupole moment (field-independent basis, Debye-Ang):
   XX=              8.3862   YY=            -62.4975   ZZ=            -83.1259
   XY=             -2.7162   XZ=              0.3133   YZ=              1.0713

  Exact polarizability: 309.249 -20.256 131.499  -0.448   0.031  68.756
 Approx polarizability: 334.573 -30.740 161.782  -0.827  -0.243  87.730

                      1                      2                      3
                      A                      A                      A
 Frequencies --     47.4040                60.2809                87.2848
 Red. masses --      6.5136                 5.7795                 5.1376
 Frc consts  --      0.0086                 0.0124                 0.0231
 IR Inten    --      0.6073                 2.0421                 1.0423

                      4                      5                      6
                      A                      A                      A
 Frequencies --     91.4447               142.0672               174.2720
 Red. masses --      3.3004                 4.8795                 2.5302
 Frc consts  --      0.0163                 0.0580                 0.0453
 IR Inten    --      5.6846                 8.0759                38.8865

                      7                      8                      9
                      A                      A                      A
 Frequencies --    199.5826               228.3922               235.5888
 Red. masses --      3.6042                 1.4297                 3.8529
 Frc consts  --      0.0846                 0.0439                 0.1260
 IR Inten    --     11.1201                81.2203                 2.0982

                     10                     11                     12
                      A                      A                      A
 Frequencies --    265.7829               312.2973               327.8502
 Red. masses --      1.3756                 5.7168                 3.2012
 Frc consts  --      0.0573                 0.3285                 0.2027
 IR Inten    --     60.2813                 0.0511                11.0590

                     13                     14                     15
                      A                      A                      A
 Frequencies --    361.5442               374.2153               432.3140
 Red. masses --      4.6752                 2.1828                 1.1781
 Frc consts  --      0.3601                 0.1801                 0.1297
 IR Inten    --     11.5506                19.2840               271.6143

                     16                     17                     18
                      A                      A                      A
 Frequencies --    466.1647               502.9555               534.0751
 Red. masses --      3.1780                 5.8261                 5.4311
 Frc consts  --      0.4069                 0.8683                 0.9127
 IR Inten    --      0.3585                18.7804                17.0802

                     19                     20                     21
                      A                      A                      A
 Frequencies --    573.3918               581.3607               593.3639
 Red. masses --      4.7906                 2.4183                 3.6753
 Frc consts  --      0.9280                 0.4816                 0.7624
 IR Inten    --     50.1605                53.5275                11.4090

                     22                     23                     24
                      A                      A                      A
 Frequencies --    603.6434               641.7625               708.2360
 Red. masses --      1.3286                 4.5858                 5.0973
 Frc consts  --      0.2852                 1.1128                 1.5064
 IR Inten    --     74.6162                10.2604                 3.6434

                     25                     26                     27
                      A                      A                      A
 Frequencies --    730.2082               791.1273               844.0216
 Red. masses --      5.2006                 5.6263                 5.3480
 Frc consts  --      1.6338                 2.0748                 2.2446
 IR Inten    --      1.1770                18.7517                 1.6252

                     28                     29                     30
                      A                      A                      A
 Frequencies --    850.0008               874.7190               894.8461
 Red. masses --      1.5304                 1.5456                 1.3848
 Frc consts  --      0.6515                 0.6968                 0.6533
 IR Inten    --     10.8828                58.4738                17.2380

                     31                     32                     33
                      A                      A                      A
 Frequencies --    973.8057               991.6408              1010.5042
 Red. masses --      3.5102                 1.3154                 5.3830
 Frc consts  --      1.9612                 0.7621                 3.2385
 IR Inten    --     81.3144                 1.2886               147.0040

                     34                     35                     36
                      A                      A                      A
 Frequencies --   1026.9169              1069.9680              1139.3483
 Red. masses --      1.3404                 4.0501                 1.1340
 Frc consts  --      0.8328                 2.7318                 0.8673
 IR Inten    --     22.0549                56.1334               185.4010

                     37                     38                     39
                      A                      A                      A
 Frequencies --   1161.6952              1171.8458              1185.4169
 Red. masses --      1.5720                 1.5175                 1.2684
 Frc consts  --      1.2499                 1.2278                 1.0502
 IR Inten    --   1383.0202               499.7174                 0.8680

                     40                     41                     42
                      A                      A                      A
 Frequencies --   1208.9704              1233.8443              1253.8380
 Red. masses --      1.3438                 1.2889                 1.5245
 Frc consts  --      1.1573                 1.1561                 1.4121
 IR Inten    --     42.1783               178.4079                44.1857

                     43                     44                     45
                      A                      A                      A
 Frequencies --   1293.7653              1319.6297              1356.4726
 Red. masses --      2.0010                 1.9438                 2.4371
 Frc consts  --      1.9734                 1.9943                 2.6420
 IR Inten    --     37.2654               210.8388                56.9556

                     46                     47                     48
                      A                      A                      A
 Frequencies --   1363.5981              1387.7726              1444.9021
 Red. masses --      1.4332                 3.6852                 3.4582
 Frc consts  --      1.5702                 4.1816                 4.2538
 IR Inten    --    490.5957               397.5765               417.8076

                     49                     50                     51
                      A                      A                      A
 Frequencies --   1489.5031              1497.9761              1510.1989
 Red. masses --      1.9559                 1.9350                 1.0427
 Frc consts  --      2.5567                 2.5583                 1.4011
 IR Inten    --    136.2050               199.4842                15.1993

                     52                     53                     54
                      A                      A                      A
 Frequencies --   1512.1020              1522.1769              1586.4499
 Red. masses --      1.2111                 3.3728                 3.8014
 Frc consts  --      1.6316                 4.6044                 5.6369
 IR Inten    --    100.4811               103.3445              1295.1198

                     55                     56                     57
                      A                      A                      A
 Frequencies --   1627.8465              1643.4693              1654.6414
 Red. masses --      4.4325                 4.4584                 5.3102
 Frc consts  --      6.9203                 7.0951                 8.5659
 IR Inten    --   1603.6997                26.3338               407.2632

                     58                     59                     60
                      A                      A                      A
 Frequencies --   1704.8590              3061.1933              3139.9579
 Red. masses --      5.8985                 1.0336                 1.1087
 Frc consts  --     10.1011                 5.7069                 6.4403
 IR Inten    --    241.8403                23.2389                16.8592

                     61                     62                     63
                      A                      A                      A
 Frequencies --   3200.3128              3206.3792              3240.4055
 Red. masses --      1.0908                 1.1032                 1.0900
 Frc consts  --      6.5824                 6.6824                 6.7432
 IR Inten    --      0.2730                 3.7842                 1.2425

                     64                     65                     66
                      A                      A                      A
 Frequencies --   3240.9460              3254.2454              3269.2152
 Red. masses --      1.0918                 1.0971                 1.0914
 Frc consts  --      6.7567                 6.8456                 6.8729
 IR Inten    --      2.3961                 0.6748                 2.7037

                     67                     68                     69
                      A                      A                      A
 Frequencies --   3754.9760              3810.8827              3821.8619
 Red. masses --      1.0653                 1.0682                 1.0665
 Frc consts  --      8.8495                 9.1401                 9.1779
 IR Inten    --    387.7311                80.8493               742.9240

 - Thermochemistry -
 -------------------
 Temperature   298.150 Kelvin.  Pressure   1.00000 Atm.
 Atom     1 has atomic number  6 and mass  12.00000

 Molecular mass:   195.06573 amu.
 Principal axes and moments of inertia in atomic units:
                           1         2         3
     Eigenvalues --  1169.153506287.776997442.23624
           X            0.99994   0.01082   0.00014
           Y           -0.01082   0.99994   0.00188
           Z           -0.00012  -0.00188   1.00000
 This molecule is an asymmetric top.
 Rotational symmetry number  1.
 Warning -- assumption of classical behavior for rotation
           may cause significant error
 Rotational temperatures (Kelvin)      0.07408     0.01377     0.01164
 Rotational constants (GHZ):           1.54363     0.28702     0.24250
 Zero-point vibrational energy     525601.6 (Joules/Mol)
                                  125.62180 (Kcal/Mol)
 Warning -- explicit consideration of  22 degrees of freedom as
           vibrations may cause significant error
 Vibrational temperatures:     68.20    86.73   125.58   131.57   204.40
          (Kelvin)            250.74   287.15   328.61   338.96   382.40
                              449.33   471.70   520.18   538.41   622.00
                              670.71   723.64   768.41   824.98   836.45
                              853.72   868.51   923.35  1018.99  1050.61
                             1138.25  1214.36  1222.96  1258.52  1287.48
                             1401.09  1426.75  1453.89  1477.50  1539.44
                             1639.27  1671.42  1686.02  1705.55  1739.44
                             1775.22  1803.99  1861.44  1898.65  1951.66
                             1961.91  1996.69  2078.89  2143.06  2155.25
                             2172.84  2175.57  2190.07  2282.54  2342.11
                             2364.58  2380.66  2452.91  4404.37  4517.69
                             4604.53  4613.26  4662.21  4662.99  4682.13
                             4703.67  5402.57  5483.00  5498.80

 Zero-point correction=                           0.200191 (Hartree/Particle)
 Thermal correction to Energy=                    0.213657
 Thermal correction to Enthalpy=                  0.214601
 Thermal correction to Gibbs Free Energy=         0.159610
 Sum of electronic and zero-point Energies=           -687.854255
 Sum of electronic and thermal Energies=              -687.840789
 Sum of electronic and thermal Enthalpies=            -687.839845
 Sum of electronic and thermal Free Energies=         -687.894836

                     E (Thermal)             CV                S
                      KCal/Mol        Cal/Mol-Kelvin    Cal/Mol-Kelvin
 Total                  134.071             50.499            115.737
 Electronic               0.000              0.000              0.000
 Translational            0.889              2.981             41.710
 Rotational               0.889              2.981             32.370
 Vibrational            132.294             44.537             41.658
 Vibration     1          0.595              1.979              4.923
 Vibration     2          0.597              1.973              4.448
 Vibration     3          0.601              1.958              3.720
 Vibration     4          0.602              1.955              3.629
 Vibration     5          0.616              1.911              2.776
 Vibration     6          0.627              1.874              2.389
 Vibration     7          0.638              1.840              2.137
 Vibration     8          0.651              1.798              1.892
 Vibration     9          0.655              1.786              1.836
 Vibration    10          0.672              1.736              1.623
 Vibration    11          0.701              1.650              1.350
 Vibration    12          0.711              1.620              1.271
 Vibration    13          0.736              1.551              1.115
 Vibration    14          0.745              1.525              1.062
 Vibration    15          0.793              1.400              0.851
 Vibration    16          0.824              1.325              0.748
 Vibration    17          0.858              1.243              0.651
 Vibration    18          0.889              1.175              0.578
 Vibration    19          0.930              1.089              0.498
 Vibration    20          0.938              1.072              0.483
 Vibration    21          0.951              1.046              0.461
 Vibration    22          0.962              1.024              0.443

 Normal termination of Gaussian 09 at Tue Dec 17 17:18:46 2024.
