 Gaussian 09, Revision E.01,
 Gaussian 09:  ES64L-G09RevE.01 30-Nov-2015

 --------------------------------------------------------
 # opt freq cam-b3lyp/6-31+g(d,p) empiricaldispersion=gd3
 --------------------------------------------------------

 ----------
 [No Title]
 ----------
 Symbolic Z-matrix:
 Charge =  0 Multiplicity = 1

 SCF Done:  E(RCAM-B3LYP) =  -687.699017539     A.U. after   17 cycles
 SCF Done:  E(RCAM-B3LYP) =  -687.702357367     A.U. after   14 cycles
 SCF Done:  E(RCAM-B3LYP) =  -687.702374735     A.U. after   14 cycles
 SCF Done:  E(RCAM-B3LYP) =  -687.702428939     A.U. after   13 cycles
 SCF Done:  E(RCAM-B3LYP) =  -687.702515627     A.U. after   13 cycles
 SCF Done:  E(RCAM-B3LYP) =  -687.702522268     A.U. after   13 cycles
 SCF Done:  E(RCAM-B3LYP) =  -687.702532925     A.U. after   13 cycles
 SCF Done:  E(RCAM-B3LYP) =  -687.702536067     A.U. after   12 cycles
 SCF Done:  E(RCAM-B3LYP) =  -687.702537892     A.U. after   12 cycles
 SCF Done:  E(RCAM-B3LYP) =  -687.702538580     A.U. after   11 cycles
 SCF Done:  E(RCAM-B3LYP) =  -687.702538882     A.U. after   11 cycles
 SCF Done:  E(RCAM-B3LYP) =  -687.702538927     A.U. after   10 cycles
 Optimization completed.
    -- Stationary point found.
 Normal termination of Gaussian 09 at Tue Dec 17 16:26:04 2024.

 ----------------------------------------------------------------------
 #N Geom=AllCheck Guess=TCheck SCRF=Check GenChk RCAM-B3LYP/6-31+G(d,p)
  Freq
 ----------------------------------------------------------------------

 Structure from the checkpoint file:  "camb3lypD3FA.chk"
 ----------
 [No Title]
 ----------
 Charge =  0 Multiplicity = 1

                         Standard orientation:
 ---------------------------------------------------------------------
 Center     Atomic      Atomic             Coordinates (Angstroms)
 Number     Number       Type             X           Y           Z
 ---------------------------------------------------------------------
      1          6           0        1.468521   -2.002987   -0.126045
      2          6           0        2.488597   -1.067946   -0.037534
      3          6           0        2.175213    0.299246    0.022807
      4          6           0        0.853943    0.709956   -0.002897
      5          6           0       -0.185257   -0.233414   -0.082831
      6          6           0        0.142755   -1.589573   -0.149750
      7          8           0        3.779181   -1.475157   -0.016852
      8          6           0       -1.566506    0.252691   -0.094829
      9          6           0       -2.681778   -0.474428    0.058159
     10          8           0        3.268835    1.114926    0.103771
     11          6           0        3.064160    2.515253    0.180556
     12          6           0       -4.056264    0.077780    0.082843
     13          8           0       -4.978332   -0.506448    0.595197
     14          8           0       -4.264898    1.292676   -0.486477
     15          1           0        1.732911   -3.052900   -0.181066
     16          1           0        0.609809    1.764846    0.046243
     17          1           0       -0.638416   -2.336294   -0.232769
     18          1           0        4.349544   -0.694828    0.046888
     19          1           0       -1.657995    1.333712   -0.205910
     20          1           0       -2.648931   -1.538776    0.261121
     21          1           0        4.055009    2.963222    0.242336
     22          1           0        2.550910    2.886309   -0.713600
     23          1           0        2.487386    2.778840    1.074065
     24          1           0       -3.498825    1.568432   -1.005286
 ---------------------------------------------------------------------

 SCF Done:  E(RCAM-B3LYP) =  -687.702538927     A.U. after    1 cycles

 The electronic state is 1-A.
 Alpha  occ. eigenvalues --  -19.29156 -19.28002 -19.27575 -19.21681 -10.40504
 Alpha  occ. eigenvalues --  -10.34937 -10.34817 -10.34282 -10.31228 -10.29777
 Alpha  occ. eigenvalues --  -10.29512 -10.29233 -10.28750 -10.28398  -1.19182
 Alpha  occ. eigenvalues --   -1.19169  -1.15833  -1.10649  -0.97096  -0.90936
 Alpha  occ. eigenvalues --   -0.86399  -0.84921  -0.80602  -0.75111  -0.71235
 Alpha  occ. eigenvalues --   -0.70035  -0.67629  -0.65496  -0.62576  -0.60292
 Alpha  occ. eigenvalues --   -0.58598  -0.57369  -0.55373  -0.53928  -0.52771
 Alpha  occ. eigenvalues --   -0.52163  -0.51619  -0.50829  -0.50120  -0.47400
 Alpha  occ. eigenvalues --   -0.47095  -0.45053  -0.44723  -0.43703  -0.42948
 Alpha  occ. eigenvalues --   -0.42735  -0.39350  -0.36604  -0.34745  -0.32016
 Alpha  occ. eigenvalues --   -0.27838
 Alpha virt. eigenvalues --   -0.03481   0.01129   0.01859   0.02205   0.03047
 Alpha virt. eigenvalues --    0.03799   0.04722   0.05574   0.06431   0.06555
 Alpha virt. eigenvalues --    0.07347   0.07688   0.08183   0.09189   0.09613

 Mulliken charges:
               1
     1  C    0.309135
     2  C   -0.243977
     3  C    0.450534
     4  C   -0.307017
     5  C    0.193191
     6  C   -0.505469
     7  O   -0.539783
     8  C   -0.154776
     9  C    0.112104
    10  O   -0.471404
    11  C   -0.134768
    12  C    0.310767
    13  O   -0.458928
    14  O   -0.424613
    15  H    0.152941
    16  H    0.125918
    17  H    0.131284
    18  H    0.395199
    19  H    0.105911
    20  H    0.152064
    21  H    0.159173
    22  H    0.152972
    23  H    0.155472
    24  H    0.334070
 Sum of Mulliken charges =  -0.00000

 Dipole moment (field-independent basis, Debye):
    X=              6.1308    Y=              3.4015    Z=             -1.4172  Tot=              7.1530
 Quadrupole moment (field-independent basis, Debye-Ang):
   XX=           -115.0167   YY=            -72.2364   ZZ=            -84.5621
   XY=              7.8228   XZ=              7.4681   YZ=             -0.0813

  Exact polarizability: 219.075   4.746 134.316  -3.770  -2.371  77.286
 Approx polarizability: 231.756   8.083 165.731  -6.286  -4.544  98.338

                      1                      2                      3
                      A                      A                      A
 Frequencies --     28.8189                63.3525                79.0130
 Red. masses --      5.6201                 6.1555                 3.7103
 Frc consts  --      0.0028                 0.0146                 0.0136
 IR Inten    --      3.7630                 2.2155                 2.5911

                      4                      5                      6
                      A                      A                      A
 Frequencies --     80.9217               123.4163               171.8962
 Red. masses --      5.0041                 3.0922                 4.2463
 Frc consts  --      0.0193                 0.0277                 0.0739
 IR Inten    --      6.9901                 8.2604                 1.7661

                      7                      8                      9
                      A                      A                      A
 Frequencies --    206.8201               222.9869               237.5174
 Red. masses --      3.5980                 3.1195                 2.2624
 Frc consts  --      0.0907                 0.0914                 0.0752
 IR Inten    --      3.2122                 3.0484                 1.3014

                     10                     11                     12
                      A                      A                      A
 Frequencies --    295.2992               314.1516               363.7572
 Red. masses --      1.9787                 5.4002                 4.6787
 Frc consts  --      0.1017                 0.3140                 0.3647
 IR Inten    --      0.9536                 6.3875                 4.7263

                     13                     14                     15
                      A                      A                      A
 Frequencies --    382.6087               464.1353               465.7550
 Red. masses --      4.1086                 1.8734                 1.2930
 Frc consts  --      0.3544                 0.2378                 0.1653
 IR Inten    --      6.8764                64.8622                67.3878

                     16                     17                     18
                      A                      A                      A
 Frequencies --    478.9921               496.7309               530.1353
 Red. masses --      1.3992                 3.5072                 5.7061
 Frc consts  --      0.1891                 0.5099                 0.9449
 IR Inten    --     64.4141                18.2671                 2.7597

                     19                     20                     21
                      A                      A                      A
 Frequencies --    575.3769               588.3400               611.9153
 Red. masses --      4.2091                 6.5474                 3.7863
 Frc consts  --      0.8210                 1.3353                 0.8353
 IR Inten    --     14.0326                21.6374                 9.0430

                     22                     23                     24
                      A                      A                      A
 Frequencies --    659.1251               722.1281               741.1353
 Red. masses --      5.4623                 4.7914                 4.3276
 Frc consts  --      1.3982                 1.4721                 1.4005
 IR Inten    --      2.7629                 1.2108                 1.6026

                     25                     26                     27
                      A                      A                      A
 Frequencies --    791.2173               835.0978               851.2773
 Red. masses --      5.5112                 5.2014                 1.4978
 Frc consts  --      2.0328                 2.1372                 0.6395
 IR Inten    --      9.0413                14.7254                25.8715

                     28                     29                     30
                      A                      A                      A
 Frequencies --    877.8548               911.0998               935.8308
 Red. masses --      1.6641                 1.9890                 4.8130
 Frc consts  --      0.7556                 0.9728                 2.4835
 IR Inten    --     25.6436                11.4683                42.7660

                     31                     32                     33
                      A                      A                      A
 Frequencies --    972.9318               978.3659              1015.5126
 Red. masses --      3.2258                 1.4046                 1.1419
 Frc consts  --      1.7991                 0.7922                 0.6938
 IR Inten    --      9.0811                 1.7909                43.1080

                     34                     35                     36
                      A                      A                      A
 Frequencies --   1086.8064              1168.1521              1183.2288
 Red. masses --      3.8350                 1.5287                 1.4630
 Frc consts  --      2.6688                 1.2291                 1.2068
 IR Inten    --     42.4055                28.3711                43.1408

                     37                     38                     39
                      A                      A                      A
 Frequencies --   1186.6238              1205.8407              1229.8895
 Red. masses --      1.2719                 1.5091                 1.6675
 Frc consts  --      1.0551                 1.2929                 1.4861
 IR Inten    --      0.8029                17.3832               178.2151

                     40                     41                     42
                      A                      A                      A
 Frequencies --   1238.6546              1277.7231              1313.5304
 Red. masses --      1.3660                 2.4766                 1.9016
 Frc consts  --      1.2348                 2.3822                 1.9331
 IR Inten    --     67.7472                83.0466                85.2939

                     43                     44                     45
                      A                      A                      A
 Frequencies --   1325.6830              1340.7304              1353.8949
 Red. masses --      2.2909                 1.9324                 5.2629
 Frc consts  --      2.3721                 2.0466                 5.6839
 IR Inten    --    390.4283               300.3028               186.4636

                     46                     47                     48
                      A                      A                      A
 Frequencies --   1375.1539              1423.9748              1484.3023
 Red. masses --      1.3886                 2.6925                 1.8561
 Frc consts  --      1.5471                 3.2167                 2.4094
 IR Inten    --      2.6992                64.8849                 7.9145

                     49                     50                     51
                      A                      A                      A
 Frequencies --   1504.6071              1508.1560              1518.6789
 Red. masses --      1.7213                 1.0431                 1.1017
 Frc consts  --      2.2959                 1.3979                 1.4971
 IR Inten    --     18.1577                11.1466                50.6266

                     52                     53                     54
                      A                      A                      A
 Frequencies --   1588.3922              1676.6339              1692.6432
 Red. masses --      3.6829                 6.2695                 6.6053
 Frc consts  --      5.4747                10.3839                11.1500
 IR Inten    --    295.7873               139.2178                56.8135

                     55                     56                     57
                      A                      A                      A
 Frequencies --   1733.4476              1858.9616              3048.8358
 Red. masses --      5.9040                10.3387                 1.0340
 Frc consts  --     10.4525                21.0503                 5.6627
 IR Inten    --     62.4043               577.6986                40.2880

                     58                     59                     60
                      A                      A                      A
 Frequencies --   3119.8878              3152.8327              3185.9231
 Red. masses --      1.1075                 1.0891                 1.1021
 Frc consts  --      6.3513                 6.3788                 6.5908
 IR Inten    --     26.5550                18.6445                14.7257

                     61                     62                     63
                      A                      A                      A
 Frequencies --   3226.8549              3231.0653              3239.7814
 Red. masses --      1.0894                 1.0907                 1.0929
 Frc consts  --      6.6832                 6.7090                 6.7589
 IR Inten    --      4.6075                 4.5087                 0.4234

                     64                     65                     66
                      A                      A                      A
 Frequencies --   3244.8335              3810.6579              3859.0948
 Red. masses --      1.0935                 1.0653                 1.0658
 Frc consts  --      6.7837                 9.1142                 9.3515
 IR Inten    --      3.3274               164.3078                30.9282

 - Thermochemistry -
 -------------------
 Temperature   298.150 Kelvin.  Pressure   1.00000 Atm.
 Atom     1 has atomic number  6 and mass  12.00000

 Molecular mass:   194.05791 amu.
 Principal axes and moments of inertia in atomic units:
                           1         2         3
     Eigenvalues --  1173.104106310.307847385.17027
           X            0.99993   0.01180   0.00289
           Y           -0.01180   0.99993   0.00185
           Z           -0.00287  -0.00188   0.99999
 This molecule is an asymmetric top.
 Rotational symmetry number  1.
 Warning -- assumption of classical behavior for rotation
           may cause significant error
 Rotational temperatures (Kelvin)      0.07383     0.01373     0.01173
 Rotational constants (GHZ):           1.53843     0.28600     0.24437
 Zero-point vibrational energy     493274.1 (Joules/Mol)
                                  117.89534 (Kcal/Mol)
 Warning -- explicit consideration of  21 degrees of freedom as
           vibrations may cause significant error
 Vibrational temperatures:     41.46    91.15   113.68   116.43   177.57
          (Kelvin)            247.32   297.57   320.83   341.73   424.87
                              451.99   523.36   550.49   667.79   670.12
                              689.16   714.68   762.75   827.84   846.49
                              880.41   948.33  1038.98  1066.33  1138.38
                             1201.52  1224.80  1263.04  1310.87  1346.45
                             1399.83  1407.65  1461.09  1563.67  1680.71
                             1702.40  1707.28  1734.93  1769.53  1782.15
                             1838.36  1889.87  1907.36  1929.01  1947.95
                             1978.54  2048.78  2135.58  2164.79  2169.90
                             2185.04  2285.34  2412.30  2435.33  2494.04
                             2674.63  4386.59  4488.82  4536.22  4583.83
                             4642.72  4648.78  4661.32  4668.59  5482.68
                             5552.37

 Zero-point correction=                           0.187878 (Hartree/Particle)
 Thermal correction to Energy=                    0.201033
 Thermal correction to Enthalpy=                  0.201977
 Thermal correction to Gibbs Free Energy=         0.146914
 Sum of electronic and zero-point Energies=           -687.514661
 Sum of electronic and thermal Energies=              -687.501506
 Sum of electronic and thermal Enthalpies=            -687.500562
 Sum of electronic and thermal Free Energies=         -687.555625

                     E (Thermal)             CV                S
                      KCal/Mol        Cal/Mol-Kelvin    Cal/Mol-Kelvin
 Total                  126.150             48.811            115.890
 Electronic               0.000              0.000              0.000
 Translational            0.889              2.981             41.694
 Rotational               0.889              2.981             32.369
 Vibrational            124.372             42.850             41.826
 Vibration     1          0.593              1.984              5.909
 Vibration     2          0.597              1.972              4.350
 Vibration     3          0.600              1.963              3.915
 Vibration     4          0.600              1.962              3.868
 Vibration     5          0.610              1.929              3.046
 Vibration     6          0.626              1.877              2.415
 Vibration     7          0.641              1.830              2.072
 Vibration     8          0.649              1.806              1.935
 Vibration     9          0.656              1.783              1.821
 Vibration    10          0.690              1.683              1.443
 Vibration    11          0.702              1.647              1.340
 Vibration    12          0.737              1.547              1.106
 Vibration    13          0.752              1.507              1.029
 Vibration    14          0.822              1.330              0.754
 Vibration    15          0.823              1.326              0.750
 Vibration    16          0.835              1.297              0.713
 Vibration    17          0.852              1.257              0.666
 Vibration    18          0.885              1.183              0.587
 Vibration    19          0.932              1.085              0.494
 Vibration    20          0.946              1.057              0.470
 Vibration    21          0.971              1.007              0.430

 Optimization completed.
    -- Stationary point found.
 Normal termination of Gaussian 09 at Tue Dec 17 16:28:44 2024.
