 Gaussian 09, Revision E.01,
 Gaussian 09:  ES64L-G09RevE.01 30-Nov-2015

 -----------------------------------------------------
 # opt freq pbepbe/6-31+g(d,p) empiricaldispersion=gd3
 -----------------------------------------------------

 ----------
 [No Title]
 ----------
 Symbolic Z-matrix:
 Charge =  0 Multiplicity = 1

 SCF Done:  E(RPBE-PBE) =  -687.222110595     A.U. after   17 cycles
 SCF Done:  E(RPBE-PBE) =  -687.224044143     A.U. after   13 cycles
 SCF Done:  E(RPBE-PBE) =  -687.224111412     A.U. after   12 cycles
 SCF Done:  E(RPBE-PBE) =  -687.224115045     A.U. after   11 cycles
 SCF Done:  E(RPBE-PBE) =  -687.224117732     A.U. after   11 cycles
 SCF Done:  E(RPBE-PBE) =  -687.224120082     A.U. after   10 cycles
 SCF Done:  E(RPBE-PBE) =  -687.224120120     A.U. after    9 cycles
 SCF Done:  E(RPBE-PBE) =  -687.224120148     A.U. after    9 cycles
 SCF Done:  E(RPBE-PBE) =  -687.224120547     A.U. after   11 cycles
 SCF Done:  E(RPBE-PBE) =  -687.224120442     A.U. after   11 cycles
 SCF Done:  E(RPBE-PBE) =  -687.224118312     A.U. after   14 cycles
 SCF Done:  E(RPBE-PBE) =  -687.224301451     A.U. after   14 cycles
 SCF Done:  E(RPBE-PBE) =  -687.224281198     A.U. after   12 cycles
 SCF Done:  E(RPBE-PBE) =  -687.224303945     A.U. after   12 cycles
 SCF Done:  E(RPBE-PBE) =  -687.224308733     A.U. after   12 cycles
 SCF Done:  E(RPBE-PBE) =  -687.224309774     A.U. after   11 cycles
 SCF Done:  E(RPBE-PBE) =  -687.224310196     A.U. after   10 cycles
 SCF Done:  E(RPBE-PBE) =  -687.224310596     A.U. after   10 cycles
 SCF Done:  E(RPBE-PBE) =  -687.224310980     A.U. after   10 cycles
 Optimization completed.
    -- Stationary point found.
 Normal termination of Gaussian 09 at Tue Dec 17 16:12:56 2024.

 ----------------------------------------------------------------------
 #N Geom=AllCheck Guess=TCheck SCRF=Check GenChk RPBEPBE/6-31+G(d,p) Fr
 eq
 ----------------------------------------------------------------------

 Structure from the checkpoint file:  "pbeD3FA.chk"
 ----------
 [No Title]
 ----------
 Charge =  0 Multiplicity = 1

                         Standard orientation:
 ---------------------------------------------------------------------
 Center     Atomic      Atomic             Coordinates (Angstroms)
 Number     Number       Type             X           Y           Z
 ---------------------------------------------------------------------
      1          6           0        1.475785   -2.023905   -0.096031
      2          6           0        2.509719   -1.079683   -0.033212
      3          6           0        2.193822    0.302871    0.018932
      4          6           0        0.861703    0.717280    0.009626
      5          6           0       -0.192076   -0.234118   -0.048798
      6          6           0        0.142296   -1.607037   -0.104285
      7          8           0        3.808403   -1.491233   -0.027003
      8          6           0       -1.567646    0.255143   -0.051898
      9          6           0       -2.713645   -0.476002    0.016728
     10          8           0        3.303732    1.116803    0.075989
     11          6           0        3.091876    2.530821    0.141923
     12          6           0       -4.087325    0.074821    0.053537
     13          8           0       -5.047073   -0.571024    0.452405
     14          8           0       -4.281897    1.372549   -0.369263
     15          1           0        1.739595   -3.083726   -0.141343
     16          1           0        0.614965    1.781624    0.052914
     17          1           0       -0.646608   -2.361064   -0.161486
     18          1           0        4.369600   -0.688743    0.020380
     19          1           0       -1.648703    1.352893   -0.080234
     20          1           0       -2.690283   -1.563521    0.129528
     21          1           0        4.092404    2.981544    0.183663
     22          1           0        2.559294    2.893867   -0.755915
     23          1           0        2.523799    2.804157    1.049690
     24          1           0       -3.466446    1.705067   -0.793361
 ---------------------------------------------------------------------

 SCF Done:  E(RPBE-PBE) =  -687.224310980     A.U. after    1 cycles

 The electronic state is 1-A.
 Alpha  occ. eigenvalues --  -18.85172 -18.83668 -18.82506 -18.76323 -10.02582
 Alpha  occ. eigenvalues --   -9.98937  -9.98905  -9.98406  -9.94746  -9.94043
 Alpha  occ. eigenvalues --   -9.93663  -9.92938  -9.92928  -9.92789  -1.02010
 Alpha  occ. eigenvalues --   -1.00302  -0.99166  -0.92536  -0.80411  -0.74630
 Alpha  occ. eigenvalues --   -0.71096  -0.69441  -0.65869  -0.60901  -0.57471
 Alpha  occ. eigenvalues --   -0.55908  -0.53956  -0.52678  -0.49693  -0.47409
 Alpha  occ. eigenvalues --   -0.46030  -0.44723  -0.43091  -0.42021  -0.40306
 Alpha  occ. eigenvalues --   -0.39422  -0.39228  -0.38897  -0.37558  -0.36145
 Alpha  occ. eigenvalues --   -0.35283  -0.33612  -0.33108  -0.32880  -0.32071
 Alpha  occ. eigenvalues --   -0.31873  -0.27632  -0.26635  -0.23673  -0.22703
 Alpha  occ. eigenvalues --   -0.20215
 Alpha virt. eigenvalues --   -0.10541  -0.05535  -0.03513  -0.02976  -0.02668
 Alpha virt. eigenvalues --   -0.01445  -0.00386   0.01418   0.01589   0.01901
 Alpha virt. eigenvalues --    0.02744   0.03112   0.03522   0.04242   0.05162

 Mulliken charges:
               1
     1  C    0.219267
     2  C   -0.432023
     3  C    0.328498
     4  C   -0.293623
     5  C    0.298386
     6  C   -0.442798
     7  O   -0.460044
     8  C   -0.096876
     9  C    0.052335
    10  O   -0.375781
    11  C   -0.201541
    12  C    0.249851
    13  O   -0.410495
    14  O   -0.362386
    15  H    0.159887
    16  H    0.132900
    17  H    0.140647
    18  H    0.384348
    19  H    0.109578
    20  H    0.156976
    21  H    0.176343
    22  H    0.173768
    23  H    0.175743
    24  H    0.317039
 Sum of Mulliken charges =  -0.00000

 Dipole moment (field-independent basis, Debye):
    X=              7.0222    Y=              3.3189    Z=             -1.0375  Tot=              7.8360
 Quadrupole moment (field-independent basis, Debye-Ang):
   XX=           -113.3857   YY=            -71.6293   ZZ=            -84.9420
   XY=              7.0391   XZ=              5.5947   YZ=             -0.0713

  Exact polarizability: 262.124   1.025 146.430  -2.865  -2.028  78.764
 Approx polarizability: 552.446   3.138 283.091 -13.607  -7.086 132.575

                      1                      2                      3
                      A                      A                      A
 Frequencies --     26.6184                60.1540                77.3890
 Red. masses --      5.7962                 6.4665                 5.7547
 Frc consts  --      0.0024                 0.0138                 0.0203
 IR Inten    --      3.7333                 1.1833                 4.3159

                      4                      5                      6
                      A                      A                      A
 Frequencies --     81.3360               110.9769               161.1774
 Red. masses --      3.2930                 3.2132                 3.8028
 Frc consts  --      0.0128                 0.0233                 0.0582
 IR Inten    --      3.9875                10.6586                 0.7542

                      7                      8                      9
                      A                      A                      A
 Frequencies --    193.8707               212.9366               224.4355
 Red. masses --      3.6224                 2.3416                 2.6773
 Frc consts  --      0.0802                 0.0626                 0.0795
 IR Inten    --      3.3849                 1.9909                 2.9468

                     10                     11                     12
                      A                      A                      A
 Frequencies --    279.7614               297.3540               345.6146
 Red. masses --      2.1236                 5.6790                 4.5293
 Frc consts  --      0.0979                 0.2958                 0.3188
 IR Inten    --      0.4164                 6.5405                 3.9514

                     13                     14                     15
                      A                      A                      A
 Frequencies --    360.7561               440.5072               454.5206
 Red. masses --      4.2463                 3.1110                 1.4193
 Frc consts  --      0.3256                 0.3557                 0.1728
 IR Inten    --      2.9163                 4.4833                62.7668

                     16                     17                     18
                      A                      A                      A
 Frequencies --    478.0425               492.8577               507.6802
 Red. masses --      2.8863                 1.0830                 5.8090
 Frc consts  --      0.3886                 0.1550                 0.8821
 IR Inten    --     20.0093               101.0204                 3.2887

                     19                     20                     21
                      A                      A                      A
 Frequencies --    552.8756               561.0859               576.3532
 Red. masses --      4.2138                 6.4688                 3.8253
 Frc consts  --      0.7589                 1.1999                 0.7487
 IR Inten    --     13.5969                20.2839                 6.6773

                     22                     23                     24
                      A                      A                      A
 Frequencies --    626.7539               678.5699               698.4505
 Red. masses --      5.5732                 4.7542                 4.6300
 Frc consts  --      1.2899                 1.2898                 1.3308
 IR Inten    --      1.8727                 0.3921                 0.6985

                     25                     26                     27
                      A                      A                      A
 Frequencies --    757.2272               793.9330               799.4203
 Red. masses --      5.6786                 1.4783                 4.6292
 Frc consts  --      1.9184                 0.5490                 1.7430
 IR Inten    --     10.4455                11.8761                12.5331

                     28                     29                     30
                      A                      A                      A
 Frequencies --    809.6081               843.3905               882.4407
 Red. masses --      1.6801                 2.0661                 4.9342
 Frc consts  --      0.6488                 0.8659                 2.2638
 IR Inten    --     35.1348                 5.6858                40.8960

                     31                     32                     33
                      A                      A                      A
 Frequencies --    909.8886               933.2068               953.7554
 Red. masses --      1.3095                 3.2986                 1.1667
 Frc consts  --      0.6388                 1.6925                 0.6253
 IR Inten    --      2.2100                12.1125                39.6385

                     34                     35                     36
                      A                      A                      A
 Frequencies --   1029.8216              1116.6102              1131.6337
 Red. masses --      4.1377                 1.6333                 1.2712
 Frc consts  --      2.5854                 1.1999                 0.9591
 IR Inten    --     43.7972                40.9848                 0.2616

                     37                     38                     39
                      A                      A                      A
 Frequencies --   1133.0249              1156.9187              1179.5251
 Red. masses --      1.6052                 1.4443                 1.7000
 Frc consts  --      1.2141                 1.1390                 1.3935
 IR Inten    --     66.2845                19.8783               103.5714

                     40                     41                     42
                      A                      A                      A
 Frequencies --   1190.3001              1227.1396              1257.2962
 Red. masses --      1.3466                 1.9762                 1.8596
 Frc consts  --      1.1241                 1.7533                 1.7320
 IR Inten    --    157.3169                42.9423                55.1363

                     43                     44                     45
                      A                      A                      A
 Frequencies --   1264.1353              1281.9008              1303.6023
 Red. masses --      2.4637                 1.7611                 2.0607
 Frc consts  --      2.3196                 1.7050                 2.0633
 IR Inten    --    674.3766                84.3909               110.2306

                     46                     47                     48
                      A                      A                      A
 Frequencies --   1322.6354              1400.2628              1421.6516
 Red. masses --      2.1225                 3.2028                 1.6844
 Frc consts  --      2.1877                 3.7000                 2.0058
 IR Inten    --     78.6309                 7.9667                 3.5027

                     49                     50                     51
                      A                      A                      A
 Frequencies --   1442.4909              1444.7247              1458.7238
 Red. masses --      2.0390                 1.0438                 1.1230
 Frc consts  --      2.4997                 1.2836                 1.4079
 IR Inten    --     27.3119                10.7897                53.2447

                     52                     53                     54
                      A                      A                      A
 Frequencies --   1512.1602              1587.6495              1606.3562
 Red. masses --      3.6946                 5.7325                 6.4217
 Frc consts  --      4.9775                 8.5134                 9.7630
 IR Inten    --    267.0239               165.9548               113.7000

                     55                     56                     57
                      A                      A                      A
 Frequencies --   1631.7999              1741.9322              2953.7113
 Red. masses --      5.8814                 9.9784                 1.0335
 Frc consts  --      9.2271                17.8391                 5.3123
 IR Inten    --     39.6368               496.5152                47.8144

                     58                     59                     60
                      A                      A                      A
 Frequencies --   3025.7141              3042.7846              3098.7976
 Red. masses --      1.1066                 1.0872                 1.1006
 Frc consts  --      5.9690                 5.9305                 6.2266
 IR Inten    --     27.6658                23.5221                13.3167

                     61                     62                     63
                      A                      A                      A
 Frequencies --   3133.1120              3136.0566              3141.9432
 Red. masses --      1.0893                 1.0881                 1.0886
 Frc consts  --      6.3003                 6.3053                 6.3315
 IR Inten    --      5.5842                 5.0373                 1.6407

                     64                     65                     66
                      A                      A                      A
 Frequencies --   3152.2971              3634.2076              3673.4671
 Red. masses --      1.0947                 1.0650                 1.0652
 Frc consts  --      6.4089                 8.2877                 8.4687
 IR Inten    --      4.0904               147.2943                 7.9309

 - Thermochemistry -
 -------------------
 Temperature   298.150 Kelvin.  Pressure   1.00000 Atm.
 Atom     1 has atomic number  6 and mass  12.00000

 Molecular mass:   194.05791 amu.
 Principal axes and moments of inertia in atomic units:
                           1         2         3
     Eigenvalues --  1189.191886403.012307530.95531
           X            0.99993   0.01168   0.00223
           Y           -0.01168   0.99993   0.00175
           Z           -0.00221  -0.00178   1.00000
 This molecule is an asymmetric top.
 Rotational symmetry number  1.
 Warning -- assumption of classical behavior for rotation
           may cause significant error
 Rotational temperatures (Kelvin)      0.07283     0.01353     0.01150
 Rotational constants (GHZ):           1.51762     0.28186     0.23964
 Zero-point vibrational energy     472628.6 (Joules/Mol)
                                  112.96095 (Kcal/Mol)
 Warning -- explicit consideration of  21 degrees of freedom as
           vibrations may cause significant error
 Vibrational temperatures:     38.30    86.55   111.35   117.02   159.67
          (Kelvin)            231.90   278.94   306.37   322.91   402.51
                              427.83   497.26   519.05   633.79   653.95
                              687.80   709.11   730.44   795.46   807.28
                              829.24   901.76   976.31  1004.91  1089.48
                             1142.29  1150.19  1164.84  1213.45  1269.63
                             1309.13  1342.67  1372.24  1481.68  1606.55
                             1628.17  1630.17  1664.55  1697.07  1712.57
                             1765.58  1808.97  1818.81  1844.37  1875.59
                             1902.98  2014.66  2045.44  2075.42  2078.63
                             2098.78  2175.66  2284.27  2311.19  2347.79
                             2506.25  4249.73  4353.32  4377.88  4458.47
                             4507.84  4512.08  4520.55  4535.45  5228.81
                             5285.29

 Zero-point correction=                           0.180015 (Hartree/Particle)
 Thermal correction to Energy=                    0.193672
 Thermal correction to Enthalpy=                  0.194616
 Thermal correction to Gibbs Free Energy=         0.138495
 Sum of electronic and zero-point Energies=           -687.044296
 Sum of electronic and thermal Energies=              -687.030639
 Sum of electronic and thermal Enthalpies=            -687.029695
 Sum of electronic and thermal Free Energies=         -687.085816

                     E (Thermal)             CV                S
                      KCal/Mol        Cal/Mol-Kelvin    Cal/Mol-Kelvin
 Total                  121.531             50.847            118.117
 Electronic               0.000              0.000              0.000
 Translational            0.889              2.981             41.694
 Rotational               0.889              2.981             32.417
 Vibrational            119.753             44.885             44.006
 Vibration     1          0.593              1.984              6.067
 Vibration     2          0.597              1.973              4.452
 Vibration     3          0.599              1.964              3.956
 Vibration     4          0.600              1.962              3.858
 Vibration     5          0.607              1.940              3.252
 Vibration     6          0.622              1.890              2.536
 Vibration     7          0.635              1.848              2.191
 Vibration     8          0.644              1.821              2.018
 Vibration     9          0.649              1.804              1.923
 Vibration    10          0.680              1.711              1.535
 Vibration    11          0.691              1.679              1.432
 Vibration    12          0.724              1.584              1.186
 Vibration    13          0.735              1.553              1.119
 Vibration    14          0.800              1.382              0.825
 Vibration    15          0.813              1.351              0.782
 Vibration    16          0.835              1.299              0.715
 Vibration    17          0.849              1.266              0.676
 Vibration    18          0.863              1.233              0.639
 Vibration    19          0.908              1.133              0.538
 Vibration    20          0.917              1.115              0.522
 Vibration    21          0.933              1.082              0.492

 Optimization completed.
    -- Stationary point found.
 Normal termination of Gaussian 09 at Tue Dec 17 16:14:26 2024.
