 Gaussian 09, Revision E.01,
 Gaussian 09:  ES64L-G09RevE.01 30-Nov-2015

 -----------------------------------------------------
 # opt freq pbepbe/6-31+g(d,p) empiricaldispersion=gd3
 -----------------------------------------------------

 ----------
 [No Title]
 ----------
 Symbolic Z-matrix:
 Charge =  1 Multiplicity = 1

 SCF Done:  E(RPBE-PBE) =  -687.580854376     A.U. after   19 cycles
 SCF Done:  E(RPBE-PBE) =  -687.582756350     A.U. after   13 cycles
 SCF Done:  E(RPBE-PBE) =  -687.582821462     A.U. after   11 cycles
 SCF Done:  E(RPBE-PBE) =  -687.582829239     A.U. after   11 cycles
 SCF Done:  E(RPBE-PBE) =  -687.582832005     A.U. after   11 cycles
 SCF Done:  E(RPBE-PBE) =  -687.582835420     A.U. after   11 cycles
 SCF Done:  E(RPBE-PBE) =  -687.582838105     A.U. after   11 cycles
 SCF Done:  E(RPBE-PBE) =  -687.582838628     A.U. after   10 cycles
 Optimization completed.
    -- Stationary point found.
 Normal termination of Gaussian 09 at Tue Dec 17 17:21:18 2024.

 ----------------------------------------------------------------------
 #N Geom=AllCheck Guess=TCheck SCRF=Check GenChk RPBEPBE/6-31+G(d,p) Fr
 eq
 ----------------------------------------------------------------------

 Structure from the checkpoint file:  "pbeD3FAyang.chk"
 ----------
 [No Title]
 ----------
 Charge =  1 Multiplicity = 1

                         Standard orientation:
 ---------------------------------------------------------------------
 Center     Atomic      Atomic             Coordinates (Angstroms)
 Number     Number       Type             X           Y           Z
 ---------------------------------------------------------------------
      1          6           0        1.479115   -2.038678   -0.027179
      2          6           0        2.528283   -1.093972   -0.013450
      3          6           0        2.244023    0.311801    0.005624
      4          6           0        0.926452    0.743233    0.012540
      5          6           0       -0.147037   -0.207892    0.001646
      6          6           0        0.164359   -1.603687   -0.021274
      7          8           0        3.794206   -1.523401   -0.020087
      8          6           0       -1.480358    0.284429    0.011121
      9          6           0       -2.658313   -0.465066    0.019114
     10          6           0       -3.918783    0.136336    0.000263
     11          8           0       -4.991105   -0.647623    0.121966
     12          8           0       -4.044336    1.458771   -0.149305
     13          8           0        3.369284    1.076113    0.015053
     14          6           0        3.223943    2.510326    0.035519
     15          1           0        1.736178   -3.100437   -0.044345
     16          1           0        0.691494    1.810296    0.027498
     17          1           0       -0.636371   -2.346408   -0.035321
     18          1           0        4.393702   -0.742406   -0.009554
     19          1           0       -1.593175    1.375880    0.011949
     20          1           0       -2.664136   -1.556149    0.041264
     21          1           0       -5.833332   -0.212793   -0.124168
     22          1           0       -4.918088    1.803463    0.126354
     23          1           0        4.245821    2.908736    0.039897
     24          1           0        2.690580    2.856861   -0.866229
     25          1           0        2.692844    2.831080    0.948094
 ---------------------------------------------------------------------

 SCF Done:  E(RPBE-PBE) =  -687.582838628     A.U. after    1 cycles

 The electronic state is 1-A.
 Alpha  occ. eigenvalues --  -19.01197 -19.01093 -18.96275 -18.95950 -10.21422
 Alpha  occ. eigenvalues --  -10.12225 -10.10901 -10.08803 -10.07699 -10.06827
 Alpha  occ. eigenvalues --  -10.06768 -10.05846 -10.05748 -10.04914  -1.21226
 Alpha  occ. eigenvalues --   -1.14194  -1.14015  -1.11156  -0.92973  -0.89328
 Alpha  occ. eigenvalues --   -0.84115  -0.82907  -0.78521  -0.76427  -0.73470
 Alpha  occ. eigenvalues --   -0.71725  -0.68903  -0.66236  -0.64471  -0.61469
 Alpha  occ. eigenvalues --   -0.59755  -0.58283  -0.58011  -0.56787  -0.55087
 Alpha  occ. eigenvalues --   -0.53929  -0.53221  -0.51746  -0.50836  -0.50609
 Alpha  occ. eigenvalues --   -0.49581  -0.48374  -0.47595  -0.47285  -0.46513
 Alpha  occ. eigenvalues --   -0.44071  -0.43344  -0.43289  -0.40150  -0.35936
 Alpha  occ. eigenvalues --   -0.32993
 Alpha virt. eigenvalues --   -0.26698  -0.17945  -0.17338  -0.17149  -0.12469
 Alpha virt. eigenvalues --   -0.12195  -0.11502  -0.11276  -0.10868  -0.09074
 Alpha virt. eigenvalues --   -0.07701  -0.07644  -0.07139  -0.06598  -0.06035

 Mulliken charges:
               1
     1  C    0.082705
     2  C   -0.324023
     3  C    0.275686
     4  C   -0.230277
     5  C    0.314396
     6  C   -0.311873
     7  O   -0.391638
     8  C    0.136199
     9  C   -0.664162
    10  C    0.848857
    11  O   -0.364324
    12  O   -0.411087
    13  O   -0.367682
    14  C   -0.193767
    15  H    0.190227
    16  H    0.157637
    17  H    0.156356
    18  H    0.403654
    19  H    0.176425
    20  H    0.177877
    21  H    0.382779
    22  H    0.383891
    23  H    0.200222
    24  H    0.186024
    25  H    0.185896
 Sum of Mulliken charges =   1.00000

 Dipole moment (field-independent basis, Debye):
    X=             -7.0068    Y=              3.3341    Z=              0.0777  Tot=              7.7600
 Quadrupole moment (field-independent basis, Debye-Ang):
   XX=              9.9855   YY=            -61.4452   ZZ=            -83.1169
   XY=             -1.9943   XZ=              0.3470   YZ=              1.3412

  Exact polarizability: 331.724 -18.968 140.556  -0.540   0.060  71.017
 Approx polarizability: 992.644-141.899 287.823  -3.107  -0.354 117.738

                      1                      2                      3
                      A                      A                      A
 Frequencies --     48.2325                59.3613                82.7953
 Red. masses --      6.3781                 5.8099                 5.1785
 Frc consts  --      0.0087                 0.0121                 0.0209
 IR Inten    --      0.3924                 2.1477                 0.9521

                      4                      5                      6
                      A                      A                      A
 Frequencies --     97.1901               143.0578               174.7795
 Red. masses --      3.2675                 5.1714                 2.4372
 Frc consts  --      0.0182                 0.0624                 0.0439
 IR Inten    --      5.3443                 1.1826                14.6698

                      7                      8                      9
                      A                      A                      A
 Frequencies --    187.9563               221.7925               227.7177
 Red. masses --      3.6292                 6.4258                 1.3192
 Frc consts  --      0.0755                 0.1862                 0.0403
 IR Inten    --      7.2523                 7.0987                23.0535

                     10                     11                     12
                      A                      A                      A
 Frequencies --    271.0878               297.8409               317.6487
 Red. masses --      1.5042                 4.9529                 2.9160
 Frc consts  --      0.0651                 0.2589                 0.1734
 IR Inten    --    135.7611                 1.1225                29.5292

                     13                     14                     15
                      A                      A                      A
 Frequencies --    344.2061               359.6384               405.4950
 Red. masses --      4.6649                 2.0239                 1.1999
 Frc consts  --      0.3256                 0.1542                 0.1162
 IR Inten    --     11.9389                40.5652               231.8310

                     16                     17                     18
                      A                      A                      A
 Frequencies --    442.8388               482.4364               510.8214
 Red. masses --      3.1917                 5.7339                 5.3425
 Frc consts  --      0.3688                 0.7863                 0.8214
 IR Inten    --      0.4396                 6.0773                 8.0978

                     19                     20                     21
                      A                      A                      A
 Frequencies --    546.6293               561.8819               569.0910
 Red. masses --      4.5311                 2.9966                 3.5977
 Frc consts  --      0.7977                 0.5574                 0.6865
 IR Inten    --     31.2454                22.1349                15.8464

                     22                     23                     24
                      A                      A                      A
 Frequencies --    604.1130               612.2044               655.6795
 Red. masses --      1.2166                 4.4750                 5.1558
 Frc consts  --      0.2616                 0.9882                 1.3060
 IR Inten    --     89.0855                 6.5583                 4.9670

                     25                     26                     27
                      A                      A                      A
 Frequencies --    697.6630               758.1563               796.8383
 Red. masses --      5.0221                 5.6859                 1.5735
 Frc consts  --      1.4402                 1.9256                 0.5886
 IR Inten    --      0.5665                15.3644                 3.6598

                     28                     29                     30
                      A                      A                      A
 Frequencies --    807.2014               824.8493               839.1779
 Red. masses --      5.3525                 1.4510                 1.5256
 Frc consts  --      2.0548                 0.5816                 0.6330
 IR Inten    --      1.7052                55.4861                 3.5960

                     31                     32                     33
                      A                      A                      A
 Frequencies --    928.9820               930.6645               954.8754
 Red. masses --      1.3280                 3.4440                 2.5004
 Frc consts  --      0.6752                 1.7575                 1.3432
 IR Inten    --      3.6641                49.4525                96.9102

                     34                     35                     36
                      A                      A                      A
 Frequencies --    958.3642              1011.6714              1116.9240
 Red. masses --      1.7678                 4.3064                 1.1809
 Frc consts  --      0.9566                 2.5968                 0.8680
 IR Inten    --     42.3912                56.4705               145.0499

                     37                     38                     39
                      A                      A                      A
 Frequencies --   1118.8232              1129.6589              1137.1292
 Red. masses --      1.5504                 1.2672                 1.4800
 Frc consts  --      1.1435                 0.9528                 1.1275
 IR Inten    --     72.6772                 0.3289               834.5765

                     40                     41                     42
                      A                      A                      A
 Frequencies --   1158.4282              1187.3602              1196.7998
 Red. masses --      1.3349                 1.3028                 1.5006
 Frc consts  --      1.0555                 1.0822                 1.2663
 IR Inten    --     21.3202               158.0438                56.4744

                     43                     44                     45
                      A                      A                      A
 Frequencies --   1236.1675              1269.5894              1296.7740
 Red. masses --      1.8701                 1.8193                 2.4337
 Frc consts  --      1.6837                 1.7277                 2.4113
 IR Inten    --     20.9812                54.3948                57.4304

                     46                     47                     48
                      A                      A                      A
 Frequencies --   1309.3870              1338.7634              1398.0657
 Red. masses --      1.3707                 3.8946                 3.5225
 Frc consts  --      1.3846                 4.1127                 4.0566
 IR Inten    --    188.6234               309.2404               148.1683

                     49                     50                     51
                      A                      A                      A
 Frequencies --   1425.7876              1430.0113              1448.0847
 Red. masses --      2.7827                 1.6528                 1.0490
 Frc consts  --      3.3330                 1.9913                 1.2960
 IR Inten    --    203.8942                68.3905                16.5268

                     52                     53                     54
                      A                      A                      A
 Frequencies --   1448.7019              1463.0607              1521.8014
 Red. masses --      1.2375                 2.6468                 4.3749
 Frc consts  --      1.5302                 3.3381                 5.9694
 IR Inten    --     68.4840                 6.4668               529.3302

                     55                     56                     57
                      A                      A                      A
 Frequencies --   1556.9265              1567.6593              1601.5335
 Red. masses --      4.9080                 4.6546                 5.2142
 Frc consts  --      7.0096                 6.7397                 7.8796
 IR Inten    --    208.2127                24.0499              1087.9841

                     58                     59                     60
                      A                      A                      A
 Frequencies --   1638.7677              2972.1381              3054.4257
 Red. masses --      5.6445                 1.0328                 1.1080
 Frc consts  --      8.9312                 5.3751                 6.0906
 IR Inten    --    490.8947                24.5225                15.1184

                     61                     62                     63
                      A                      A                      A
 Frequencies --   3104.7379              3121.5573              3147.6937
 Red. masses --      1.0894                 1.1023                 1.0905
 Frc consts  --      6.1873                 6.3282                 6.3660
 IR Inten    --      0.6658                 2.7236                 1.8579

                     64                     65                     66
                      A                      A                      A
 Frequencies --   3148.9208              3163.1586              3169.0045
 Red. masses --      1.0883                 1.0956                 1.0904
 Frc consts  --      6.3581                 6.4586                 6.4518
 IR Inten    --      1.5966                 0.5873                 1.2565

                     67                     68                     69
                      A                      A                      A
 Frequencies --   3581.3181              3665.6399              3673.9434
 Red. masses --      1.0650                 1.0677                 1.0658
 Frc consts  --      8.0481                 8.4527                 8.4761
 IR Inten    --    314.8663                65.4795               528.5806

 - Thermochemistry -
 -------------------
 Temperature   298.150 Kelvin.  Pressure   1.00000 Atm.
 Atom     1 has atomic number  6 and mass  12.00000

 Molecular mass:   195.06573 amu.
 Principal axes and moments of inertia in atomic units:
                           1         2         3
     Eigenvalues --  1188.516426404.138807575.91711
           X            0.99994   0.01093   0.00018
           Y           -0.01093   0.99994   0.00246
           Z           -0.00016  -0.00246   1.00000
 This molecule is an asymmetric top.
 Rotational symmetry number  1.
 Warning -- assumption of classical behavior for rotation
           may cause significant error
 Rotational temperatures (Kelvin)      0.07288     0.01352     0.01143
 Rotational constants (GHZ):           1.51848     0.28181     0.23822
 Zero-point vibrational energy     505611.7 (Joules/Mol)
                                  120.84411 (Kcal/Mol)
 Warning -- explicit consideration of  23 degrees of freedom as
           vibrations may cause significant error
 Vibrational temperatures:     69.40    85.41   119.12   139.83   205.83
          (Kelvin)            251.47   270.43   319.11   327.63   390.03
                              428.53   457.03   495.24   517.44   583.42
                              637.15   694.12   734.96   786.48   808.42
                              818.79   869.18   880.82   943.38  1003.78
                             1090.82  1146.47  1161.38  1186.77  1207.39
                             1336.60  1339.02  1373.85  1378.87  1455.57
                             1607.00  1609.74  1625.33  1636.07  1666.72
                             1708.34  1721.93  1778.57  1826.65  1865.77
                             1883.91  1926.18  2011.50  2051.39  2057.46
                             2083.47  2084.36  2105.02  2189.53  2240.07
                             2255.51  2304.25  2357.82  4276.24  4394.63
                             4467.02  4491.22  4528.82  4530.59  4551.07
                             4559.49  5152.71  5274.03  5285.98

 Zero-point correction=                           0.192577 (Hartree/Particle)
 Thermal correction to Energy=                    0.206453
 Thermal correction to Enthalpy=                  0.207397
 Thermal correction to Gibbs Free Energy=         0.151730
 Sum of electronic and zero-point Energies=           -687.390261
 Sum of electronic and thermal Energies=              -687.376385
 Sum of electronic and thermal Enthalpies=            -687.375441
 Sum of electronic and thermal Free Energies=         -687.431108

                     E (Thermal)             CV                S
                      KCal/Mol        Cal/Mol-Kelvin    Cal/Mol-Kelvin
 Total                  129.551             52.414            117.161
 Electronic               0.000              0.000              0.000
 Translational            0.889              2.981             41.710
 Rotational               0.889              2.981             32.422
 Vibrational            127.774             46.452             43.029
 Vibration     1          0.595              1.978              4.889
 Vibration     2          0.597              1.974              4.478
 Vibration     3          0.600              1.961              3.824
 Vibration     4          0.603              1.951              3.510
 Vibration     5          0.616              1.910              2.763
 Vibration     6          0.627              1.873              2.383
 Vibration     7          0.633              1.856              2.248
 Vibration     8          0.648              1.808              1.944
 Vibration     9          0.651              1.799              1.897
 Vibration    10          0.675              1.727              1.589
 Vibration    11          0.691              1.678              1.429
 Vibration    12          0.704              1.640              1.322
 Vibration    13          0.723              1.587              1.193
 Vibration    14          0.734              1.555              1.124
 Vibration    15          0.770              1.458              0.943
 Vibration    16          0.802              1.377              0.818
 Vibration    17          0.839              1.289              0.704
 Vibration    18          0.866              1.226              0.632
 Vibration    19          0.902              1.147              0.551
 Vibration    20          0.918              1.114              0.520
 Vibration    21          0.925              1.098              0.506
 Vibration    22          0.963              1.023              0.443
 Vibration    23          0.971              1.006              0.429

 Normal termination of Gaussian 09 at Tue Dec 17 17:23:00 2024.
