 Gaussian 09, Revision E.01,
 Gaussian 09:  ES64L-G09RevE.01 30-Nov-2015

 ---------------------------
 # opt freq apfd/6-31+g(d,p)
 ---------------------------

 ----------
 [No Title]
 ----------
 Symbolic Z-matrix:
 Charge =  1 Multiplicity = 1

 SCF Done:  E(RAPFD) =  -492.100680005     A.U. after   18 cycles
 SCF Done:  E(RAPFD) =  -492.100970830     A.U. after   12 cycles
 SCF Done:  E(RAPFD) =  -492.100999990     A.U. after   11 cycles
 SCF Done:  E(RAPFD) =  -492.101005593     A.U. after   10 cycles
 SCF Done:  E(RAPFD) =  -492.101006074     A.U. after    9 cycles
 Optimization completed.
    -- Stationary point found.
 Normal termination of Gaussian 09 at Thu Jun 13 22:36:37 2024.

 ----------------------------------------------------------------------
 #N Geom=AllCheck Guess=TCheck SCRF=Check GenChk RAPFD/6-31+G(d,p) Freq
 ----------------------------------------------------------------------

 Structure from the checkpoint file:  "APFDPNAyang.chk"
 ----------
 [No Title]
 ----------
 Charge =  1 Multiplicity = 1

                         Standard orientation:
 ---------------------------------------------------------------------
 Center     Atomic      Atomic             Coordinates (Angstroms)
 Number     Number       Type             X           Y           Z
 ---------------------------------------------------------------------
      1          6           0        0.055286    1.259403   -0.000046
      2          6           0       -0.667986    0.034720   -0.000117
      3          6           0        0.006008   -1.217495   -0.000079
      4          6           0        1.370329   -1.237823   -0.000024
      5          6           0        2.114547   -0.017295    0.000018
      6          6           0        1.418245    1.231698    0.000008
      7          7           0        3.445756   -0.042760    0.000067
      8          7           0       -2.029028    0.106804   -0.000176
      9          8           0       -2.662322   -1.093953    0.000135
     10          8           0       -2.696274    1.116167    0.000095
     11          1           0       -0.486033    2.200017   -0.000059
     12          1           0       -0.557042   -2.143807   -0.000112
     13          1           0        1.898680   -2.186753   -0.000015
     14          1           0        1.981755    2.160213    0.000036
     15          1           0        3.990789    0.807570    0.000098
     16          1           0        3.958527   -0.912886    0.000075
     17          1           0       -3.613571   -0.869625    0.000339
 ---------------------------------------------------------------------

 SCF Done:  E(RAPFD) =  -492.101006074     A.U. after    1 cycles

 The electronic state is 1-A.
 Alpha  occ. eigenvalues --  -19.46267 -19.42601 -14.79352 -14.59000 -10.47098
 Alpha  occ. eigenvalues --  -10.45236 -10.41808 -10.41609 -10.40262 -10.40237
 Alpha  occ. eigenvalues --   -1.44320  -1.28006  -1.15240  -1.09535  -1.01706
 Alpha  occ. eigenvalues --   -0.96237  -0.90263  -0.84051  -0.81470  -0.76766
 Alpha  occ. eigenvalues --   -0.74870  -0.73144  -0.73023  -0.71789  -0.65753
 Alpha  occ. eigenvalues --   -0.63392  -0.62587  -0.61798  -0.59993  -0.59303
 Alpha  occ. eigenvalues --   -0.54483  -0.53859  -0.52118  -0.50691  -0.45577
 Alpha  occ. eigenvalues --   -0.41235
 Alpha virt. eigenvalues --   -0.28649  -0.18535  -0.15797  -0.12630  -0.11764
 Alpha virt. eigenvalues --   -0.09754  -0.09089  -0.08273  -0.06563  -0.06133
 Alpha virt. eigenvalues --   -0.05961  -0.04375  -0.04166  -0.03217  -0.02576

 Mulliken charges:
               1
     1  C    0.075830
     2  C   -0.683997
     3  C    0.293254
     4  C    0.069575
     5  C   -0.040581
     6  C    0.116696
     7  N   -0.539755
     8  N   -0.247910
     9  O   -0.034342
    10  O    0.030470
    11  H    0.225601
    12  H    0.224619
    13  H    0.195981
    14  H    0.197599
    15  H    0.358662
    16  H    0.358370
    17  H    0.399926
 Sum of Mulliken charges =   1.00000

 Dipole moment (field-independent basis, Debye):
    X=              3.5635    Y=             -1.1249    Z=              0.0002  Tot=              3.7368
 Quadrupole moment (field-independent basis, Debye-Ang):
   XX=             -7.5439   YY=            -44.1266   ZZ=            -58.4992
   XY=              4.7841   XZ=             -0.0005   YZ=             -0.0003

  Exact polarizability: 192.982  -5.365  87.121  -0.000   0.000  44.222
 Approx polarizability: 417.782 -31.801 144.645   0.003   0.001  63.569

                      1                      2                      3
                      A                      A                      A
 Frequencies --     94.9979               102.4137               229.1630
 Red. masses --      4.9214                 7.1860                 5.7121
 Frc consts  --      0.0262                 0.0444                 0.1767
 IR Inten    --      3.2285                 0.1251                 1.2299

                      4                      5                      6
                      A                      A                      A
 Frequencies --    258.5749               374.6968               395.4661
 Red. masses --      4.5519                 8.2790                 2.3016
 Frc consts  --      0.1793                 0.6848                 0.2121
 IR Inten    --      0.0747                 1.0320                19.0267

                      7                      8                      9
                      A                      A                      A
 Frequencies --    405.1721               448.9252               484.9557
 Red. masses --      3.1184                 1.2727                 1.9884
 Frc consts  --      0.3016                 0.1511                 0.2755
 IR Inten    --      0.2353               159.4186                 2.9325

                     10                     11                     12
                      A                      A                      A
 Frequencies --    537.7885               541.2724               561.0737
 Red. masses --      1.3159                 5.9094                 1.0628
 Frc consts  --      0.2242                 1.0201                 0.1971
 IR Inten    --    193.1093                11.0701                 0.1711

                     13                     14                     15
                      A                      A                      A
 Frequencies --    620.9576               630.9635               680.9117
 Red. masses --      5.9494                 6.8096                 4.7231
 Frc consts  --      1.3516                 1.5973                 1.2902
 IR Inten    --     31.2830                 4.6452                15.6858

                     16                     17                     18
                      A                      A                      A
 Frequencies --    731.8397               751.6996               813.6680
 Red. masses --      6.3811                 5.1100                 1.2776
 Frc consts  --      2.0136                 1.7012                 0.4983
 IR Inten    --      2.0733                 7.6693                 0.4767

                     19                     20                     21
                      A                      A                      A
 Frequencies --    849.1631               856.2635               992.8361
 Red. masses --      5.6928                 1.8407                 1.2865
 Frc consts  --      2.4186                 0.7951                 0.7471
 IR Inten    --     24.3525                71.6280                 0.1516

                     22                     23                     24
                      A                      A                      A
 Frequencies --    999.9162              1004.3202              1050.4589
 Red. masses --      1.3158                 3.0081                 1.5595
 Frc consts  --      0.7751                 1.7876                 1.0139
 IR Inten    --      0.1347                 1.4364                26.0771

                     25                     26                     27
                      A                      A                      A
 Frequencies --   1076.8124              1186.8462              1214.7401
 Red. masses --      4.0878                 1.1906                 1.2183
 Frc consts  --      2.7927                 0.9881                 1.0592
 IR Inten    --    233.7811                20.4922               419.2273

                     28                     29                     30
                      A                      A                      A
 Frequencies --   1291.1643              1354.0214              1407.4508
 Red. masses --      1.6994                 1.3444                 1.9716
 Frc consts  --      1.6692                 1.4522                 2.3011
 IR Inten    --    358.8556                25.6060                88.4896

                     31                     32                     33
                      A                      A                      A
 Frequencies --   1433.4705              1443.4317              1557.1626
 Red. masses --      3.2671                 4.1034                 5.0622
 Frc consts  --      3.9554                 5.0371                 7.2319
 IR Inten    --      8.5095                55.3010                83.0917

                     34                     35                     36
                      A                      A                      A
 Frequencies --   1568.4461              1585.4133              1670.8248
 Red. masses --      2.6628                 5.7922                 4.6406
 Frc consts  --      3.8595                 8.5779                 7.6329
 IR Inten    --     33.8639                 9.1567               831.0144

                     37                     38                     39
                      A                      A                      A
 Frequencies --   1694.3077              1736.2533              3226.5338
 Red. masses --      1.5250                 4.8104                 1.0917
 Frc consts  --      2.5794                 8.5439                 6.6959
 IR Inten    --    579.7349                64.0925                 0.4080

                     40                     41                     42
                      A                      A                      A
 Frequencies --   3226.7149              3250.6696              3261.8058
 Red. masses --      1.0920                 1.0961                 1.0954
 Frc consts  --      6.6987                 6.8240                 6.8668
 IR Inten    --      0.0682                11.1266                 9.0484

                     43                     44                     45
                      A                      A                      A
 Frequencies --   3608.1985              3709.3942              3732.6669
 Red. masses --      1.0479                 1.0664                 1.1058
 Frc consts  --      8.0381                 8.6453                 9.0778
 IR Inten    --    386.9799               389.1493                89.8309

 - Thermochemistry -
 -------------------
 Temperature   298.150 Kelvin.  Pressure   1.00000 Atm.
 Atom     1 has atomic number  6 and mass  12.00000

 Molecular mass:   139.05075 amu.
 Principal axes and moments of inertia in atomic units:
                           1         2         3
     Eigenvalues --   478.348602185.795182664.14377
           X            0.99998   0.00614   0.00000
           Y           -0.00614   0.99998   0.00000
           Z           -0.00000  -0.00000   1.00000
 This molecule is an asymmetric top.
 Rotational symmetry number  1.
 Warning -- assumption of classical behavior for rotation
           may cause significant error
 Rotational temperatures (Kelvin)      0.18107     0.03963     0.03251
 Rotational constants (GHZ):           3.77286     0.82567     0.67742
 Zero-point vibrational energy     350827.8 (Joules/Mol)
                                   83.84985 (Kcal/Mol)
 Warning -- explicit consideration of  12 degrees of freedom as
           vibrations may cause significant error
 Vibrational temperatures:    136.68   147.35   329.71   372.03   539.10
          (Kelvin)            568.99   582.95   645.90   697.74   773.76
                              778.77   807.26   893.42   907.81   979.68
                             1052.95  1081.53  1170.69  1221.75  1231.97
                             1428.47  1438.65  1444.99  1511.37  1549.29
                             1707.60  1747.74  1857.70  1948.13  2025.01
                             2062.44  2076.77  2240.41  2256.64  2281.05
                             2403.94  2437.73  2498.08  4642.26  4642.52
                             4676.98  4693.01  5191.39  5336.98  5370.47

 Zero-point correction=                           0.133623 (Hartree/Particle)
 Thermal correction to Energy=                    0.142020
 Thermal correction to Enthalpy=                  0.142965
 Thermal correction to Gibbs Free Energy=         0.100387
 Sum of electronic and zero-point Energies=           -491.967383
 Sum of electronic and thermal Energies=              -491.958986
 Sum of electronic and thermal Enthalpies=            -491.958042
 Sum of electronic and thermal Free Energies=         -492.000619

                     E (Thermal)             CV                S
                      KCal/Mol        Cal/Mol-Kelvin    Cal/Mol-Kelvin
 Total                   89.119             33.065             89.612
 Electronic               0.000              0.000              0.000
 Translational            0.889              2.981             40.701
 Rotational               0.889              2.981             29.412
 Vibrational             87.342             27.103             19.500
 Vibration     1          0.603              1.953              3.554
 Vibration     2          0.604              1.947              3.408
 Vibration     3          0.652              1.796              1.885
 Vibration     4          0.667              1.748              1.671
 Vibration     5          0.746              1.524              1.061
 Vibration     6          0.762              1.480              0.979
 Vibration     7          0.770              1.459              0.944
 Vibration     8          0.808              1.363              0.799
 Vibration     9          0.841              1.283              0.697
 Vibration    10          0.893              1.166              0.570
 Vibration    11          0.896              1.159              0.563
 Vibration    12          0.917              1.116              0.522

 Optimization completed.
    -- Stationary point found.
 Normal termination of Gaussian 09 at Thu Jun 13 22:37:49 2024.
