 Gaussian 09, Revision E.01,
 Gaussian 09:  ES64L-G09RevE.01 30-Nov-2015

 ---------------------------
 # opt freq apfd/6-31+g(d,p)
 ---------------------------

 ----------
 [No Title]
 ----------
 Symbolic Z-matrix:
 Charge =  0 Multiplicity = 1

 SCF Done:  E(RAPFD) =  -491.752705061     A.U. after   16 cycles
 SCF Done:  E(RAPFD) =  -491.752913414     A.U. after   12 cycles
 SCF Done:  E(RAPFD) =  -491.750679433     A.U. after   13 cycles
 SCF Done:  E(RAPFD) =  -491.752947512     A.U. after    9 cycles
 SCF Done:  E(RAPFD) =  -491.752965493     A.U. after   11 cycles
 SCF Done:  E(RAPFD) =  -491.752967190     A.U. after   10 cycles
 Optimization completed.
    -- Stationary point found.
 Normal termination of Gaussian 09 at Thu Jun 13 22:00:58 2024.

 ----------------------------------------------------------------------
 #N Geom=AllCheck Guess=TCheck SCRF=Check GenChk RAPFD/6-31+G(d,p) Freq
 ----------------------------------------------------------------------

 Structure from the checkpoint file:  "APFDPNA.chk"
 ----------
 [No Title]
 ----------
 Charge =  0 Multiplicity = 1

                         Standard orientation:
 ---------------------------------------------------------------------
 Center     Atomic      Atomic             Coordinates (Angstroms)
 Number     Number       Type             X           Y           Z
 ---------------------------------------------------------------------
      1          6           0        0.023895   -1.214170    0.000073
      2          6           0        0.712546   -0.000000    0.000138
      3          6           0        0.023895    1.214170    0.000144
      4          6           0       -1.359328    1.214356    0.000101
      5          6           0       -2.077475    0.000000    0.000043
      6          6           0       -1.359328   -1.214356    0.000030
      7          7           0       -3.441440   -0.000000    0.000003
      8          7           0        2.160279    0.000000    0.000189
      9          8           0        2.733427    1.087531   -0.000267
     10          8           0        2.733427   -1.087531   -0.000334
     11          1           0        0.584321   -2.142632    0.000064
     12          1           0        0.584321    2.142632    0.000190
     13          1           0       -1.898748    2.158276    0.000111
     14          1           0       -1.898748   -2.158276   -0.000015
     15          1           0       -3.961543   -0.859770   -0.000052
     16          1           0       -3.961543    0.859770    0.000001
 ---------------------------------------------------------------------

 SCF Done:  E(RAPFD) =  -491.752967190     A.U. after    1 cycles

 The electronic state is 1-A.
 Alpha  occ. eigenvalues --  -19.21814 -19.21813 -14.60241 -14.41853 -10.29604
 Alpha  occ. eigenvalues --  -10.26774 -10.24730 -10.24729 -10.23986 -10.23986
 Alpha  occ. eigenvalues --   -1.24471  -1.06793  -0.97941  -0.90015  -0.81356
 Alpha  occ. eigenvalues --   -0.79370  -0.71196  -0.66076  -0.61731  -0.57664
 Alpha  occ. eigenvalues --   -0.56659  -0.55328  -0.54010  -0.51688  -0.47720
 Alpha  occ. eigenvalues --   -0.46968  -0.45740  -0.43335  -0.42770  -0.37790
 Alpha  occ. eigenvalues --   -0.35425  -0.31546  -0.31444  -0.29591  -0.28954
 Alpha  occ. eigenvalues --   -0.24266
 Alpha virt. eigenvalues --   -0.08191  -0.03129  -0.00823   0.00919   0.01720
 Alpha virt. eigenvalues --    0.02148   0.04598   0.05176   0.06749   0.07133
 Alpha virt. eigenvalues --    0.08377   0.09158   0.09454   0.10027   0.11498

 Mulliken charges:
               1
     1  C    0.062472
     2  C   -0.551028
     3  C    0.062472
     4  C    0.070298
     5  C   -0.086435
     6  C    0.070298
     7  N   -0.634840
     8  N   -0.159072
     9  O   -0.085230
    10  O   -0.085230
    11  H    0.195724
    12  H    0.195724
    13  H    0.150194
    14  H    0.150194
    15  H    0.322229
    16  H    0.322229
 Sum of Mulliken charges =   0.00000

 Dipole moment (field-independent basis, Debye):
    X=             -7.8180    Y=              0.0000    Z=              0.0010  Tot=              7.8180
 Quadrupole moment (field-independent basis, Debye-Ang):
   XX=            -55.7515   YY=            -52.4612   ZZ=            -60.5680
   XY=              0.0000   XZ=              0.0036   YZ=              0.0002

  Exact polarizability: 153.710  -0.000  98.013  -0.003   0.001  49.459
 Approx polarizability: 239.058  -0.000 175.474  -0.005   0.003  70.259

 ******    1 imaginary frequencies (negative Signs) ******

                      1                      2                      3
                      A                      A                      A
 Frequencies --   -244.2548                70.2236               109.9013
 Red. masses --      1.2342                 7.6869                 5.8261
 Frc consts  --      0.0434                 0.0223                 0.0415
 IR Inten    --    232.3564                 0.0000                 0.0014

                      4                      5                      6
                      A                      A                      A
 Frequencies --    233.9846               287.4964               370.7481
 Red. masses --      6.4062                 5.5614                 9.4221
 Frc consts  --      0.2066                 0.2708                 0.7631
 IR Inten    --      0.2205                 3.5424                 0.0025

                      7                      8                      9
                      A                      A                      A
 Frequencies --    398.7725               410.9816               425.3228
 Red. masses --      3.1171                 1.0713                 2.6431
 Frc consts  --      0.2920                 0.1066                 0.2817
 IR Inten    --      1.0689                 0.0000                 0.0000

                     10                     11                     12
                      A                      A                      A
 Frequencies --    495.7106               544.5637               644.8639
 Red. masses --      2.6802                 6.8943                 6.8137
 Frc consts  --      0.3880                 1.2046                 1.6694
 IR Inten    --     20.7480                 2.6239                 1.0647

                     13                     14                     15
                      A                      A                      A
 Frequencies --    652.8655               692.8996               761.7045
 Red. masses --      6.8909                 3.2346                 7.6453
 Frc consts  --      1.7305                 0.9150                 2.6135
 IR Inten    --     14.6982                10.3245                24.5963

                     16                     17                     18
                      A                      A                      A
 Frequencies --    819.8771               842.3798               848.4768
 Red. masses --      1.2600                 5.4539                 1.9410
 Frc consts  --      0.4990                 2.2802                 0.8233
 IR Inten    --      0.0000                 0.1303                46.6157

                     19                     20                     21
                      A                      A                      A
 Frequencies --    904.4357               976.4160               984.8973
 Red. masses --      9.9220                 1.2869                 1.3316
 Frc consts  --      4.7820                 0.7229                 0.7610
 IR Inten    --     27.8062                 1.8443                 0.0000

                     22                     23                     24
                      A                      A                      A
 Frequencies --   1023.9039              1046.1064              1156.3027
 Red. masses --      2.7459                 1.3927                 2.2225
 Frc consts  --      1.6961                 0.8980                 1.7508
 IR Inten    --      2.1890                 0.0402               163.6812

                     25                     26                     27
                      A                      A                      A
 Frequencies --   1157.0324              1222.9422              1334.2802
 Red. masses --      1.1670                 1.4194                 1.3164
 Frc consts  --      0.9205                 1.2508                 1.3808
 IR Inten    --     16.6355                10.9139                 0.1844

                     28                     29                     30
                      A                      A                      A
 Frequencies --   1361.4593              1410.5519              1421.0896
 Red. masses --      2.8951                 7.6268                11.5896
 Frc consts  --      3.1617                 8.9407                13.7899
 IR Inten    --    187.4458                 0.5996               646.4782

                     31                     32                     33
                      A                      A                      A
 Frequencies --   1494.6666              1555.0507              1617.5676
 Red. masses --      3.5627                 2.7398                10.0091
 Frc consts  --      4.6894                 3.9035                15.4301
 IR Inten    --      1.0663                44.3012               120.1225

                     34                     35                     36
                      A                      A                      A
 Frequencies --   1660.9429              1669.9674              1684.6233
 Red. masses --      1.5650                 9.4252                 3.0473
 Frc consts  --      2.5437                15.4866                 5.0952
 IR Inten    --      2.4839               172.0320               461.5555

                     37                     38                     39
                      A                      A                      A
 Frequencies --   3204.1111              3204.6645              3251.4678
 Red. masses --      1.0905                 1.0903                 1.0930
 Frc consts  --      6.5964                 6.5972                 6.8082
 IR Inten    --      8.7528                11.4938                 0.4931

                     40                     41                     42
                      A                      A                      A
 Frequencies --   3251.6164              3664.7552              3794.6878
 Red. masses --      1.0936                 1.0461                 1.1051
 Frc consts  --      6.8127                 8.2776                 9.3757
 IR Inten    --      4.1640               127.9662                47.3597

 - Thermochemistry -
 -------------------
 Temperature   298.150 Kelvin.  Pressure   1.00000 Atm.
 Atom     1 has atomic number  6 and mass  12.00000

 Molecular mass:   138.04293 amu.
 Principal axes and moments of inertia in atomic units:
                           1         2         3
     Eigenvalues --   459.741482182.827542642.56900
           X            1.00000   0.00000   0.00004
           Y           -0.00000   1.00000  -0.00003
           Z           -0.00004   0.00003   1.00000
 This molecule is an asymmetric top.
 Rotational symmetry number  1.
 Warning -- assumption of classical behavior for rotation
           may cause significant error
 Rotational temperatures (Kelvin)      0.18840     0.03968     0.03278
 Rotational constants (GHZ):           3.92556     0.82679     0.68295
    1 imaginary frequencies ignored.
 Zero-point vibrational energy     315002.5 (Joules/Mol)
                                   75.28741 (Kcal/Mol)
 Warning -- explicit consideration of  10 degrees of freedom as
           vibrations may cause significant error
 Vibrational temperatures:    101.04   158.12   336.65   413.64   533.42
          (Kelvin)            573.74   591.31   611.94   713.22   783.50
                              927.81   939.33   996.93  1095.92  1179.62
                             1212.00  1220.77  1301.28  1404.84  1417.05
                             1473.17  1505.11  1663.66  1664.71  1759.54
                             1919.73  1958.83  2029.47  2044.63  2150.49
                             2237.37  2327.32  2389.72  2402.71  2423.79
                             4610.00  4610.79  4678.13  4678.34  5272.76
                             5459.70

 Zero-point correction=                           0.119978 (Hartree/Particle)
 Thermal correction to Energy=                    0.127904
 Thermal correction to Enthalpy=                  0.128848
 Thermal correction to Gibbs Free Energy=         0.086816
 Sum of electronic and zero-point Energies=           -491.632989
 Sum of electronic and thermal Energies=              -491.625063
 Sum of electronic and thermal Enthalpies=            -491.624119
 Sum of electronic and thermal Free Energies=         -491.666151

                     E (Thermal)             CV                S
                      KCal/Mol        Cal/Mol-Kelvin    Cal/Mol-Kelvin
 Total                   80.261             30.226             88.464
 Electronic               0.000              0.000              0.000
 Translational            0.889              2.981             40.679
 Rotational               0.889              2.981             29.363
 Vibrational             78.484             24.264             18.422
 Vibration     1          0.598              1.968              4.147
 Vibration     2          0.606              1.941              3.271
 Vibration     3          0.654              1.789              1.848
 Vibration     4          0.685              1.697              1.489
 Vibration     5          0.743              1.532              1.077
 Vibration     6          0.765              1.473              0.967
 Vibration     7          0.775              1.446              0.923
 Vibration     8          0.787              1.415              0.874
 Vibration     9          0.851              1.260              0.669
 Vibration    10          0.900              1.152              0.556

 Optimization completed.
    -- Stationary point found.
 Normal termination of Gaussian 09 at Thu Jun 13 22:02:01 2024.
