 Gaussian 09, Revision E.01,
 Gaussian 09:  ES64L-G09RevE.01 30-Nov-2015

 -----------------------------
 # opt freq B2PLYP/6-31+g(d,p)
 -----------------------------

 ----------
 [No Title]
 ----------
 Symbolic Z-matrix:
 Charge =  0 Multiplicity = 1

 SCF Done:  E(RB2PLYP) =  -491.164606844     A.U. after   15 cycles
 E2(B2PLYP) =    -0.5060816690D+00 E(B2PLYP) =    -0.49167068851322D+03
 SCF Done:  E(RB2PLYP) =  -491.162957433     A.U. after   13 cycles
 E2(B2PLYP) =    -0.5089184939D+00 E(B2PLYP) =    -0.49167187592647D+03
 SCF Done:  E(RB2PLYP) =  -491.162404067     A.U. after   13 cycles
 E2(B2PLYP) =    -0.5094147295D+00 E(B2PLYP) =    -0.49167181879699D+03
 SCF Done:  E(RB2PLYP) =  -491.159739278     A.U. after   14 cycles
 E2(B2PLYP) =    -0.5114935014D+00 E(B2PLYP) =    -0.49167123277951D+03
 SCF Done:  E(RB2PLYP) =  -491.162601293     A.U. after   11 cycles
 E2(B2PLYP) =    -0.5093506796D+00 E(B2PLYP) =    -0.49167195197245D+03
 SCF Done:  E(RB2PLYP) =  -491.162545112     A.U. after   10 cycles
 E2(B2PLYP) =    -0.5094080334D+00 E(B2PLYP) =    -0.49167195314540D+03
 Optimization completed.
    -- Stationary point found.
 Normal termination of Gaussian 09 at Sun Dec 15 15:06:38 2024.

 ----------------------------------------------------------------------
 #N Geom=AllCheck Guess=TCheck SCRF=Check GenChk RB2PLYP(FC)/6-31+G(d,p
 ) Freq
 ----------------------------------------------------------------------

 Structure from the checkpoint file:  "B2PLYPPNA.chk"
 ----------
 [No Title]
 ----------
 Charge =  0 Multiplicity = 1

                         Standard orientation:
 ---------------------------------------------------------------------
 Center     Atomic      Atomic             Coordinates (Angstroms)
 Number     Number       Type             X           Y           Z
 ---------------------------------------------------------------------
      1          6           0       -0.022329    1.216707   -0.000080
      2          6           0       -0.709892    0.000000   -0.000071
      3          6           0       -0.022330   -1.216707   -0.000009
      4          6           0        1.364975   -1.214950    0.000043
      5          6           0        2.083696   -0.000000    0.000036
      6          6           0        1.364976    1.214950   -0.000027
      7          7           0        3.455014   -0.000000    0.000092
      8          7           0       -2.165778    0.000000   -0.000129
      9          8           0       -2.748579   -1.097368    0.000084
     10          8           0       -2.748579    1.097368    0.000015
     11          1           0       -0.578546    2.143831   -0.000119
     12          1           0       -0.578547   -2.143831    0.000007
     13          1           0        1.903295   -2.156289    0.000099
     14          1           0        1.903296    2.156289   -0.000026
     15          1           0        3.974268    0.859889    0.000050
     16          1           0        3.974268   -0.859889    0.000102
 ---------------------------------------------------------------------

 SCF Done:  E(RB2PLYP) =  -491.162545112     A.U. after    1 cycles
 E2(B2PLYP) =    -0.5094080320D+00 E(B2PLYP) =    -0.49167195314399D+03
 E2(B2PLYP) =    -0.5094080320D+00 E(B2PLYP) =    -0.49167195314398D+03

 The electronic state is 1-A.
 Alpha  occ. eigenvalues --  -19.77774 -19.77771 -15.10682 -14.89773 -10.71628
 Alpha  occ. eigenvalues --  -10.68745 -10.66755 -10.66753 -10.65447 -10.65446
 Alpha  occ. eigenvalues --   -1.36824  -1.18260  -1.08736  -1.00746  -0.91226
 Alpha  occ. eigenvalues --   -0.89355  -0.80219  -0.74363  -0.69829  -0.65036
 Alpha  occ. eigenvalues --   -0.63324  -0.62428  -0.59997  -0.58967  -0.54527
 Alpha  occ. eigenvalues --   -0.53394  -0.52231  -0.49586  -0.48000  -0.43826
 Alpha  occ. eigenvalues --   -0.40143  -0.38294  -0.36848  -0.36307  -0.32132
 Alpha  occ. eigenvalues --   -0.27426
 Alpha virt. eigenvalues --   -0.03597   0.01274   0.01738   0.03526   0.04142
 Alpha virt. eigenvalues --    0.05774   0.06374   0.06770   0.09079   0.09105
 Alpha virt. eigenvalues --    0.10457   0.10833   0.11638   0.12259   0.13898

 Mulliken charges:
               1
     1  C    0.042646
     2  C   -0.399164
     3  C    0.042645
     4  C    0.042079
     5  C   -0.030054
     6  C    0.042080
     7  N   -0.665626
     8  N   -0.120862
     9  O   -0.127176
    10  O   -0.127176
    11  H    0.191304
    12  H    0.191304
    13  H    0.140536
    14  H    0.140537
    15  H    0.318463
    16  H    0.318463
 Sum of Mulliken charges =   0.00000

 Dipole moment (field-independent basis, Debye):
    X=              7.8616    Y=             -0.0000    Z=             -0.0003  Tot=              7.8616
 Quadrupole moment (field-independent basis, Debye-Ang):
   XX=            -58.1287   YY=            -52.9789   ZZ=            -61.2382
   XY=              0.0000   XZ=              0.0010   YZ=             -0.0002

  Exact polarizability: 155.093   0.000  99.660   0.001  -0.001  50.829
 Approx polarizability: 165.567   0.000 136.012   0.001  -0.002  62.916

 ******    1 imaginary frequencies (negative Signs) ******

                      1                      2                      3
                      A                      A                      A
 Frequencies --   -390.6224                58.9581               107.4043
 Red. masses --      1.2694                 7.6795                 5.7644
 Frc consts  --      0.1141                 0.0157                 0.0392
 IR Inten    --    233.7254                 0.0000                 0.0067

                      4                      5                      6
                      A                      A                      A
 Frequencies --    225.4651               278.1350               364.8817
 Red. masses --      6.4715                 5.5102                 9.5005
 Frc consts  --      0.1938                 0.2511                 0.7452
 IR Inten    --      0.2113                 4.0970                 0.0099

                      7                      8                      9
                      A                      A                      A
 Frequencies --    381.6994               388.7503               408.3606
 Red. masses --      1.0316                 3.0886                 3.1248
 Frc consts  --      0.0886                 0.2750                 0.3070
 IR Inten    --      0.0000                 0.8923                 0.0000

                     10                     11                     12
                      A                      A                      A
 Frequencies --    464.2816               533.4021               587.0795
 Red. masses --      3.2010                 6.8039                 5.2128
 Frc consts  --      0.4065                 1.1406                 1.0586
 IR Inten    --     20.5229                 2.1479                 5.0249

                     13                     14                     15
                      A                      A                      A
 Frequencies --    640.0993               648.0264               709.7758
 Red. masses --      7.0462                 6.8634                 7.9968
 Frc consts  --      1.7010                 1.6981                 2.3736
 IR Inten    --     17.3177                 0.8356                22.4422

                     16                     17                     18
                      A                      A                      A
 Frequencies --    809.0672               809.2056               818.7928
 Red. masses --      1.2566                 1.5760                 6.8063
 Frc consts  --      0.4846                 0.6080                 2.6885
 IR Inten    --      0.0000                47.7547                 3.9963

                     19                     20                     21
                      A                      A                      A
 Frequencies --    868.2268               931.7503               952.0840
 Red. masses --      7.2077                 1.1617                 1.2950
 Frc consts  --      3.2012                 0.5942                 0.6916
 IR Inten    --     21.0079                 5.2924                 0.0000

                     22                     23                     24
                      A                      A                      A
 Frequencies --   1024.6097              1047.5551              1139.0138
 Red. masses --      2.8805                 1.4116                 2.7490
 Frc consts  --      1.7817                 0.9127                 2.1013
 IR Inten    --      1.5407                 0.0681                89.8382

                     25                     26                     27
                      A                      A                      A
 Frequencies --   1154.8881              1213.5588              1342.1804
 Red. masses --      1.1781                 1.3032                 1.3254
 Frc consts  --      0.9258                 1.1308                 1.4068
 IR Inten    --     14.3163                48.5597                 0.0531

                     28                     29                     30
                      A                      A                      A
 Frequencies --   1348.9768              1361.2009              1406.5367
 Red. masses --      4.6849                 4.7131                 7.6200
 Frc consts  --      5.0230                 5.1452                 8.8820
 IR Inten    --    557.2538               159.5507                 0.7548

                     31                     32                     33
                      A                      A                      A
 Frequencies --   1487.4167              1551.8260              1569.9777
 Red. masses --      3.4297                 2.6521                11.8755
 Frc consts  --      4.4706                 3.7629                17.2461
 IR Inten    --      3.5181                40.9139               175.3874

                     34                     35                     36
                      A                      A                      A
 Frequencies --   1649.3116              1658.5321              1683.7844
 Red. masses --      7.5959                 2.8604                 1.5283
 Frc consts  --     12.1740                 4.6357                 2.5529
 IR Inten    --     46.1750                93.7907               375.6645

                     37                     38                     39
                      A                      A                      A
 Frequencies --   3218.8177              3219.3969              3270.1339
 Red. masses --      1.0907                 1.0906                 1.0928
 Frc consts  --      6.6581                 6.6596                 6.8855
 IR Inten    --     10.3760                12.4415                 0.3074

                     40                     41                     42
                      A                      A                      A
 Frequencies --   3270.1953              3664.4404              3796.4809
 Red. masses --      1.0935                 1.0458                 1.1051
 Frc consts  --      6.8898                 8.2742                 9.3842
 IR Inten    --      2.9939               128.8413                44.9232

 - Thermochemistry -
 -------------------
 Temperature   298.150 Kelvin.  Pressure   1.00000 Atm.
 Atom     1 has atomic number  6 and mass  12.00000

 Molecular mass:   138.04293 amu.
 Principal axes and moments of inertia in atomic units:
                           1         2         3
     Eigenvalues --   462.825972201.225522664.05149
           X            1.00000   0.00000  -0.00001
           Y           -0.00000   1.00000   0.00003
           Z            0.00001  -0.00003   1.00000
 This molecule is an asymmetric top.
 Rotational symmetry number  1.
 Warning -- assumption of classical behavior for rotation
           may cause significant error
 Rotational temperatures (Kelvin)      0.18714     0.03935     0.03251
 Rotational constants (GHZ):           3.89939     0.81988     0.67744
    1 imaginary frequencies ignored.
 Zero-point vibrational energy     311413.5 (Joules/Mol)
                                   74.42962 (Kcal/Mol)
 Warning -- explicit consideration of  11 degrees of freedom as
           vibrations may cause significant error
 Vibrational temperatures:     84.83   154.53   324.39   400.17   524.98
          (Kelvin)            549.18   559.32   587.54   668.00   767.45
                              844.68   920.96   932.36  1021.21  1164.07
                             1164.26  1178.06  1249.18  1340.58  1369.83
                             1474.18  1507.20  1638.78  1661.62  1746.04
                             1931.10  1940.87  1958.46  2023.69  2140.06
                             2232.73  2258.84  2372.99  2386.25  2422.59
                             4631.15  4631.99  4704.99  4705.08  5272.31
                             5462.28

 Zero-point correction=                           0.118611 (Hartree/Particle)
 Thermal correction to Energy=                    0.126802
 Thermal correction to Enthalpy=                  0.127746
 Thermal correction to Gibbs Free Energy=         0.085134
 Sum of electronic and zero-point Energies=           -491.553342
 Sum of electronic and thermal Energies=              -491.545151
 Sum of electronic and thermal Enthalpies=            -491.544207
 Sum of electronic and thermal Free Energies=         -491.586820

                     E (Thermal)             CV                S
                      KCal/Mol        Cal/Mol-Kelvin    Cal/Mol-Kelvin
 Total                   79.570             31.141             89.686
 Electronic               0.000              0.000              0.000
 Translational            0.889              2.981             40.679
 Rotational               0.889              2.981             29.386
 Vibrational             77.792             25.180             19.621
 Vibration     1          0.596              1.974              4.492
 Vibration     2          0.606              1.943              3.315
 Vibration     3          0.650              1.802              1.915
 Vibration     4          0.679              1.714              1.545
 Vibration     5          0.738              1.545              1.101
 Vibration     6          0.751              1.509              1.032
 Vibration     7          0.757              1.494              1.005
 Vibration     8          0.773              1.452              0.932
 Vibration     9          0.822              1.329              0.754
 Vibration    10          0.888              1.176              0.580
 Vibration    11          0.944              1.059              0.472

 Optimization completed.
    -- Stationary point found.
 Normal termination of Gaussian 09 at Sun Dec 15 15:14:55 2024.
