 Gaussian 09, Revision E.01,
 Gaussian 09:  ES64L-G09RevE.01 30-Nov-2015

 -----------------------------
 # opt freq B2PLYP/6-31+g(d,p)
 -----------------------------

 ----------
 [No Title]
 ----------
 Symbolic Z-matrix:
 Charge =  1 Multiplicity = 1

 SCF Done:  E(RB2PLYP) =  -491.510258322     A.U. after   16 cycles
 E2(B2PLYP) =    -0.5051718355D+00 E(B2PLYP) =    -0.49201543015798D+03
 SCF Done:  E(RB2PLYP) =  -491.508611074     A.U. after   13 cycles
 E2(B2PLYP) =    -0.5080586610D+00 E(B2PLYP) =    -0.49201666973507D+03
 SCF Done:  E(RB2PLYP) =  -491.508166707     A.U. after   12 cycles
 E2(B2PLYP) =    -0.5085867315D+00 E(B2PLYP) =    -0.49201675343884D+03
 SCF Done:  E(RB2PLYP) =  -491.508070178     A.U. after   12 cycles
 E2(B2PLYP) =    -0.5086872217D+00 E(B2PLYP) =    -0.49201675739962D+03
 SCF Done:  E(RB2PLYP) =  -491.508088211     A.U. after   11 cycles
 E2(B2PLYP) =    -0.5086742933D+00 E(B2PLYP) =    -0.49201676250454D+03
 SCF Done:  E(RB2PLYP) =  -491.508125501     A.U. after    9 cycles
 E2(B2PLYP) =    -0.5086376276D+00 E(B2PLYP) =    -0.49201676312813D+03
 Optimization completed.
    -- Stationary point found.
 Normal termination of Gaussian 09 at Sun Dec 15 19:17:06 2024.

 ----------------------------------------------------------------------
 #N Geom=AllCheck Guess=TCheck SCRF=Check GenChk RB2PLYP(FC)/6-31+G(d,p
 ) Freq
 ----------------------------------------------------------------------

 Structure from the checkpoint file:  "B2PLYPPNAyang.chk"
 ----------
 [No Title]
 ----------
 Charge =  1 Multiplicity = 1

                         Standard orientation:
 ---------------------------------------------------------------------
 Center     Atomic      Atomic             Coordinates (Angstroms)
 Number     Number       Type             X           Y           Z
 ---------------------------------------------------------------------
      1          6           0       -0.059286    1.264924   -0.000006
      2          6           0        0.665216    0.038328   -0.000025
      3          6           0       -0.005985   -1.217570   -0.000017
      4          6           0       -1.374242   -1.239029    0.000001
      5          6           0       -2.120942   -0.018272    0.000015
      6          6           0       -1.425783    1.233747    0.000011
      7          7           0       -3.456873   -0.045566    0.000032
      8          7           0        2.031377    0.109879   -0.000041
      9          8           0        2.672846   -1.109179    0.000006
     10          8           0        2.715149    1.124818    0.000004
     11          1           0        0.479203    2.203693   -0.000009
     12          1           0        0.557923   -2.139620   -0.000026
     13          1           0       -1.900374   -2.186004    0.000004
     14          1           0       -1.990189    2.158469    0.000022
     15          1           0       -4.002127    0.804708    0.000042
     16          1           0       -3.967322   -0.917156    0.000035
     17          1           0        3.623520   -0.872152    0.000035
 ---------------------------------------------------------------------

 SCF Done:  E(RB2PLYP) =  -491.508125501     A.U. after    1 cycles
 E2(B2PLYP) =    -0.5086376278D+00 E(B2PLYP) =    -0.49201676312840D+03
 E2(B2PLYP) =    -0.5086376278D+00 E(B2PLYP) =    -0.49201676312839D+03

 The electronic state is 1-A.
 Alpha  occ. eigenvalues --  -20.01977 -19.98415 -15.29455 -15.07111 -10.89517
 Alpha  occ. eigenvalues --  -10.87039 -10.83898 -10.83667 -10.81685 -10.81651
 Alpha  occ. eigenvalues --   -1.56242  -1.39433  -1.26294  -1.20232  -1.11707
 Alpha  occ. eigenvalues --   -1.06266  -0.99122  -0.91818  -0.89217  -0.83920
 Alpha  occ. eigenvalues --   -0.82444  -0.80009  -0.79253  -0.78501  -0.72966
 Alpha  occ. eigenvalues --   -0.69716  -0.69311  -0.68413  -0.66335  -0.64456
 Alpha  occ. eigenvalues --   -0.60845  -0.59842  -0.57284  -0.56483  -0.48831
 Alpha  occ. eigenvalues --   -0.43992
 Alpha virt. eigenvalues --   -0.24521  -0.13163  -0.10242  -0.10204  -0.09022
 Alpha virt. eigenvalues --   -0.07588  -0.06465  -0.05680  -0.04510  -0.04007
 Alpha virt. eigenvalues --   -0.02609  -0.01556  -0.01135  -0.00994   0.00095

 Mulliken charges:
               1
     1  C    0.060818
     2  C   -0.531867
     3  C    0.258817
     4  C    0.033397
     5  C    0.028661
     6  C    0.086637
     7  N   -0.572017
     8  N   -0.203200
     9  O   -0.086517
    10  O   -0.011130
    11  H    0.221388
    12  H    0.219713
    13  H    0.186502
    14  H    0.188030
    15  H    0.355895
    16  H    0.355555
    17  H    0.409319
 Sum of Mulliken charges =   1.00000

 Dipole moment (field-independent basis, Debye):
    X=             -3.6409    Y=             -1.1550    Z=              0.0001  Tot=              3.8198
 Quadrupole moment (field-independent basis, Debye-Ang):
   XX=             -9.4800   YY=            -44.8344   ZZ=            -59.1455
   XY=             -4.9331   XZ=             -0.0002   YZ=             -0.0000

  Exact polarizability: 202.873   5.706  88.385  -0.001   0.000  45.140
 Approx polarizability: 267.621  21.006 111.724  -0.001   0.000  57.190

                      1                      2                      3
                      A                      A                      A
 Frequencies --     91.1548                96.7431               220.4192
 Red. masses --      5.3300                 6.6386                 5.7587
 Frc consts  --      0.0261                 0.0366                 0.1648
 IR Inten    --      1.5489                 1.4817                 1.1631

                      4                      5                      6
                      A                      A                      A
 Frequencies --    248.3805               368.5092               376.9795
 Red. masses --      4.7728                 8.2357                 2.1933
 Frc consts  --      0.1735                 0.6589                 0.1837
 IR Inten    --      0.0915                 0.8020                32.5920

                      7                      8                      9
                      A                      A                      A
 Frequencies --    395.7295               427.3208               460.5065
 Red. masses --      3.0842                 1.4035                 2.2378
 Frc consts  --      0.2846                 0.1510                 0.2796
 IR Inten    --      0.2275               126.7717                 0.3100

                     10                     11                     12
                      A                      A                      A
 Frequencies --    487.1186               530.1230               552.9599
 Red. masses --      1.2822                 5.9320                 1.0535
 Frc consts  --      0.1793                 0.9822                 0.1898
 IR Inten    --    215.7332                11.7817                 0.0320

                     13                     14                     15
                      A                      A                      A
 Frequencies --    603.3622               612.2447               631.2049
 Red. masses --      5.9795                 5.0238                 6.8615
 Frc consts  --      1.2825                 1.1095                 1.6107
 IR Inten    --     23.7147                 7.7236                 4.7735

                     16                     17                     18
                      A                      A                      A
 Frequencies --    646.6353               729.7362               804.0266
 Red. masses --     11.7347                 5.5370                 1.2777
 Frc consts  --      2.8909                 1.7372                 0.4867
 IR Inten    --      7.0093                22.7879                 1.1917

                     19                     20                     21
                      A                      A                      A
 Frequencies --    826.1885               841.4351               956.2240
 Red. masses --      1.5825                 5.5952                 1.1773
 Frc consts  --      0.6364                 2.3340                 0.6342
 IR Inten    --     65.6057                27.2543                 1.2551

                     22                     23                     24
                      A                      A                      A
 Frequencies --    968.9779              1003.3157              1027.3787
 Red. masses --      1.2839                 3.3303                 4.0828
 Frc consts  --      0.7102                 1.9752                 2.5390
 IR Inten    --      0.2118                 8.1332               244.5122

                     25                     26                     27
                      A                      A                      A
 Frequencies --   1057.8223              1181.6678              1210.6541
 Red. masses --      1.5357                 1.2024                 1.2312
 Frc consts  --      1.0125                 0.9892                 1.0632
 IR Inten    --     24.4056                23.4185               350.2794

                     28                     29                     30
                      A                      A                      A
 Frequencies --   1285.5936              1359.1028              1378.8158
 Red. masses --      1.8672                 1.3815                 2.4094
 Frc consts  --      1.8182                 1.5036                 2.6988
 IR Inten    --    283.7361                31.3668                82.6341

                     31                     32                     33
                      A                      A                      A
 Frequencies --   1420.5530              1435.8070              1551.8233
 Red. masses --      2.3198                 4.1898                 4.7387
 Frc consts  --      2.7582                 5.0891                 6.7235
 IR Inten    --     69.3281                24.0889                80.7955

                     34                     35                     36
                      A                      A                      A
 Frequencies --   1561.4458              1575.4071              1658.5589
 Red. masses --      2.7842                 5.4164                 4.4885
 Frc consts  --      3.9994                 7.9203                 7.2747
 IR Inten    --     65.8328                 7.1516               884.1657

                     37                     38                     39
                      A                      A                      A
 Frequencies --   1685.2999              1714.4724              3241.2125
 Red. masses --      2.2731                 1.9883                 1.0916
 Frc consts  --      3.8038                 3.4435                 6.7567
 IR Inten    --     89.8160               263.3459                 0.1496

                     40                     41                     42
                      A                      A                      A
 Frequencies --   3241.6399              3265.8751              3280.1522
 Red. masses --      1.0925                 1.0958                 1.0950
 Frc consts  --      6.7637                 6.8861                 6.9416
 IR Inten    --      0.1462                 9.9358                 8.5682

                     43                     44                     45
                      A                      A                      A
 Frequencies --   3602.6060              3675.3954              3729.7141
 Red. masses --      1.0477                 1.0665                 1.1058
 Frc consts  --      8.0115                 8.4879                 9.0631
 IR Inten    --    443.4198               379.5232                88.6441

 - Thermochemistry -
 -------------------
 Temperature   298.150 Kelvin.  Pressure   1.00000 Atm.
 Atom     1 has atomic number  6 and mass  12.00000

 Molecular mass:   139.05075 amu.
 Principal axes and moments of inertia in atomic units:
                           1         2         3
     Eigenvalues --   482.361632202.502642684.86427
           X            0.99998  -0.00613   0.00001
           Y            0.00613   0.99998  -0.00000
           Z           -0.00001   0.00000   1.00000
 This molecule is an asymmetric top.
 Rotational symmetry number  1.
 Warning -- assumption of classical behavior for rotation
           may cause significant error
 Rotational temperatures (Kelvin)      0.17956     0.03933     0.03226
 Rotational constants (GHZ):           3.74147     0.81940     0.67219
 Zero-point vibrational energy     347038.4 (Joules/Mol)
                                   82.94417 (Kcal/Mol)
 Warning -- explicit consideration of  14 degrees of freedom as
           vibrations may cause significant error
 Vibrational temperatures:    131.15   139.19   317.13   357.36   530.20
          (Kelvin)            542.39   569.37   614.82   662.57   700.85
                              762.73   795.59   868.10   880.88   908.16
                              930.36  1049.93  1156.81  1188.70  1210.64
                             1375.79  1394.14  1443.55  1478.17  1521.97
                             1700.15  1741.86  1849.68  1955.44  1983.81
                             2043.86  2065.80  2232.72  2246.57  2266.66
                             2386.29  2424.77  2466.74  4663.38  4663.99
                             4698.86  4719.40  5183.34  5288.07  5366.22

 Zero-point correction=                           0.132180 (Hartree/Particle)
 Thermal correction to Energy=                    0.140860
 Thermal correction to Enthalpy=                  0.141804
 Thermal correction to Gibbs Free Energy=         0.098692
 Sum of electronic and zero-point Energies=           -491.884583
 Sum of electronic and thermal Energies=              -491.875903
 Sum of electronic and thermal Enthalpies=            -491.874959
 Sum of electronic and thermal Free Energies=         -491.918071

                     E (Thermal)             CV                S
                      KCal/Mol        Cal/Mol-Kelvin    Cal/Mol-Kelvin
 Total                   88.391             34.040             90.736
 Electronic               0.000              0.000              0.000
 Translational            0.889              2.981             40.701
 Rotational               0.889              2.981             29.435
 Vibrational             86.613             28.078             20.600
 Vibration     1          0.602              1.955              3.635
 Vibration     2          0.603              1.952              3.519
 Vibration     3          0.647              1.810              1.956
 Vibration     4          0.662              1.765              1.742
 Vibration     5          0.741              1.537              1.086
 Vibration     6          0.748              1.519              1.051
 Vibration     7          0.762              1.479              0.978
 Vibration     8          0.789              1.411              0.867
 Vibration     9          0.818              1.338              0.765
 Vibration    10          0.843              1.279              0.691
 Vibration    11          0.885              1.183              0.587
 Vibration    12          0.908              1.133              0.538
 Vibration    13          0.962              1.025              0.444
 Vibration    14          0.971              1.006              0.429

 Optimization completed.
    -- Stationary point found.
 Normal termination of Gaussian 09 at Sun Dec 15 19:25:19 2024.
