 Gaussian 09, Revision E.01,
 Gaussian 09:  ES64L-G09RevE.01 30-Nov-2015

 ----------------------------
 # opt freq b3lyp/6-31+g(d,p)
 ----------------------------

 ----------
 [No Title]
 ----------
 Symbolic Z-matrix:
 Charge =  0 Multiplicity = 1

 SCF Done:  E(RB3LYP) =  -492.069699762     A.U. after   15 cycles
 SCF Done:  E(RB3LYP) =  -492.127497694     A.U. after   14 cycles
 SCF Done:  E(RB3LYP) =  -492.143083419     A.U. after   14 cycles
 SCF Done:  E(RB3LYP) =  -492.144984678     A.U. after   12 cycles
 SCF Done:  E(RB3LYP) =  -492.145422633     A.U. after   12 cycles
 SCF Done:  E(RB3LYP) =  -492.145472791     A.U. after   11 cycles
 SCF Done:  E(RB3LYP) =  -492.145475677     A.U. after   10 cycles
 SCF Done:  E(RB3LYP) =  -492.145475645     A.U. after   10 cycles
 Optimization completed.
    -- Stationary point found.
 Normal termination of Gaussian 09 at Thu Jun 20 16:44:22 2024.

 ----------------------------------------------------------------------
 #N Geom=AllCheck Guess=TCheck SCRF=Check GenChk RB3LYP/6-31+G(d,p) Fre
 q
 ----------------------------------------------------------------------

 Structure from the checkpoint file:  "b3lyp4NiAn.chk"
 ----------
 [No Title]
 ----------
 Charge =  0 Multiplicity = 1

                         Standard orientation:
 ---------------------------------------------------------------------
 Center     Atomic      Atomic             Coordinates (Angstroms)
 Number     Number       Type             X           Y           Z
 ---------------------------------------------------------------------
      1          6           0       -0.021349    1.216636    0.000233
      2          6           0       -0.712201    0.000001    0.000401
      3          6           0       -0.021350   -1.216633    0.000304
      4          6           0        1.364504   -1.216261    0.000164
      5          6           0        2.084729   -0.000001    0.000057
      6          6           0        1.364505    1.216260    0.000093
      7          7           0        3.454988    0.000001   -0.000073
      8          7           0       -2.166613    0.000000    0.000623
      9          8           0       -2.748238   -1.091526   -0.000713
     10          8           0       -2.748250    1.091523   -0.000779
     11          1           0       -0.579376    2.144975    0.000276
     12          1           0       -0.579380   -2.144973    0.000402
     13          1           0        1.903619   -2.159429    0.000145
     14          1           0        1.903622    2.159428    0.000019
     15          1           0        3.975885    0.860958   -0.000159
     16          1           0        3.975884   -0.860957   -0.000106
 ---------------------------------------------------------------------

 SCF Done:  E(RB3LYP) =  -492.145475645     A.U. after    1 cycles

 The electronic state is 1-A.
 Alpha  occ. eigenvalues --  -19.17996 -19.17995 -14.56875 -14.38732 -10.27467
 Alpha  occ. eigenvalues --  -10.24747 -10.22574 -10.22573 -10.21848 -10.21848
 Alpha  occ. eigenvalues --   -1.21870  -1.04550  -0.96174  -0.88373  -0.79898
 Alpha  occ. eigenvalues --   -0.78022  -0.70009  -0.64999  -0.60731  -0.56612
 Alpha  occ. eigenvalues --   -0.55787  -0.54285  -0.52670  -0.50631  -0.47154
 Alpha  occ. eigenvalues --   -0.46291  -0.45212  -0.42818  -0.41851  -0.37489
 Alpha  occ. eigenvalues --   -0.34687  -0.30830  -0.30828  -0.28846  -0.28389
 Alpha  occ. eigenvalues --   -0.23880
 Alpha virt. eigenvalues --   -0.08881  -0.03654  -0.02010   0.00104   0.00688
 Alpha virt. eigenvalues --    0.01074   0.03542   0.04133   0.05631   0.06002
 Alpha virt. eigenvalues --    0.07306   0.08076   0.08330   0.08878   0.10364

 Mulliken charges:
               1
     1  C   -0.052610
     2  C   -0.205105
     3  C   -0.052612
     4  C   -0.003953
     5  C    0.184243
     6  C   -0.003946
     7  N   -0.649337
     8  N   -0.271260
     9  O   -0.067636
    10  O   -0.067640
    11  H    0.166932
    12  H    0.166932
    13  H    0.119577
    14  H    0.119577
    15  H    0.308418
    16  H    0.308418
 Sum of Mulliken charges =  -0.00000

 Dipole moment (field-independent basis, Debye):
    X=              7.9312    Y=             -0.0000    Z=              0.0026  Tot=              7.9312
 Quadrupole moment (field-independent basis, Debye-Ang):
   XX=            -57.0914   YY=            -53.3006   ZZ=            -60.7951
   XY=              0.0000   XZ=             -0.0097   YZ=             -0.0002

  Exact polarizability: 158.013  -0.000  99.659   0.006  -0.001  50.714
 Approx polarizability: 255.159  -0.000 184.001   0.011  -0.003  73.868

 ******    1 imaginary frequencies (negative Signs) ******

                      1                      2                      3
                      A                      A                      A
 Frequencies --   -252.7610                71.4581               109.8758
 Red. masses --      1.2360                 7.6743                 5.8058
 Frc consts  --      0.0465                 0.0231                 0.0413
 IR Inten    --    228.1593                 0.0000                 0.0091

                      4                      5                      6
                      A                      A                      A
 Frequencies --    224.5530               287.8643               363.6919
 Red. masses --      6.4677                 5.5737                 9.4754
 Frc consts  --      0.1921                 0.2721                 0.7384
 IR Inten    --      0.2632                 4.0628                 0.0066

                      7                      8                      9
                      A                      A                      A
 Frequencies --    390.0346               407.0915               426.3307
 Red. masses --      3.0662                 1.0442                 2.8376
 Frc consts  --      0.2748                 0.1020                 0.3039
 IR Inten    --      0.9040                 0.0000                 0.0000

                     10                     11                     12
                      A                      A                      A
 Frequencies --    498.5512               537.4117               640.6230
 Red. masses --      2.6863                 6.7978                 6.9566
 Frc consts  --      0.3934                 1.1567                 1.6821
 IR Inten    --     18.5422                 2.8151                15.6615

                     13                     14                     15
                      A                      A                      A
 Frequencies --    646.6215               693.2028               751.1092
 Red. masses --      6.8781                 3.2779                 7.8329
 Frc consts  --      1.6944                 0.9280                 2.6036
 IR Inten    --      0.9947                11.7926                18.2314

                     16                     17                     18
                      A                      A                      A
 Frequencies --    818.3131               823.0831               846.6265
 Red. masses --      1.2590                 6.2440                 1.8977
 Frc consts  --      0.4967                 2.4923                 0.8014
 IR Inten    --      0.0000                 1.7246                46.1814

                     19                     20                     21
                      A                      A                      A
 Frequencies --    870.4740               976.0041               981.8717
 Red. masses --      7.9212                 1.2911                 1.3293
 Frc consts  --      3.5363                 0.7246                 0.7551
 IR Inten    --     19.5420                 1.5891                 0.0000

                     22                     23                     24
                      A                      A                      A
 Frequencies --   1018.7526              1038.2940              1134.3405
 Red. masses --      2.8206                 1.4134                 2.5514
 Frc consts  --      1.7248                 0.8978                 1.9343
 IR Inten    --      1.9540                 0.1577               145.2469

                     25                     26                     27
                      A                      A                      A
 Frequencies --   1147.7008              1208.3135              1332.8962
 Red. masses --      1.1746                 1.3533                 1.3300
 Frc consts  --      0.9116                 1.1641                 1.3922
 IR Inten    --     14.8833                29.0057                 0.0263

                     28                     29                     30
                      A                      A                      A
 Frequencies --   1342.8706              1370.7596              1384.9149
 Red. masses --      3.3559                 8.2778                 7.6712
 Frc consts  --      3.5656                 9.1640                 8.6688
 IR Inten    --    378.5416               471.4634                 1.4324

                     31                     32                     33
                      A                      A                      A
 Frequencies --   1481.0193              1540.4045              1570.6409
 Red. masses --      3.4423                 2.6228                11.1784
 Frc consts  --      4.4485                 3.6668                16.2473
 IR Inten    --      4.6236                48.7201               187.7624

                     34                     35                     36
                      A                      A                      A
 Frequencies --   1638.0111              1648.3397              1667.8907
 Red. masses --      7.9173                 2.3935                 1.7294
 Frc consts  --     12.5158                 3.8315                 2.8345
 IR Inten    --     89.3897                42.9986               406.4371

                     37                     38                     39
                      A                      A                      A
 Frequencies --   3187.1881              3187.9430              3239.9893
 Red. masses --      1.0904                 1.0903                 1.0925
 Frc consts  --      6.5259                 6.5284                 6.7570
 IR Inten    --     10.9980                13.5423                 0.2592

                     40                     41                     42
                      A                      A                      A
 Frequencies --   3240.1960              3633.3573              3759.7778
 Red. masses --      1.0932                 1.0458                 1.1049
 Frc consts  --      6.7621                 8.1341                 9.2027
 IR Inten    --      3.4412               121.2428                42.2359

 - Thermochemistry -
 -------------------
 Temperature   298.150 Kelvin.  Pressure   1.00000 Atm.
 Atom     1 has atomic number  6 and mass  12.00000

 Molecular mass:   138.04293 amu.
 Principal axes and moments of inertia in atomic units:
                           1         2         3
     Eigenvalues --   461.768812201.505792663.27443
           X            1.00000   0.00000  -0.00007
           Y           -0.00000   1.00000   0.00003
           Z            0.00007  -0.00003   1.00000
 This molecule is an asymmetric top.
 Rotational symmetry number  1.
 Warning -- assumption of classical behavior for rotation
           may cause significant error
 Rotational temperatures (Kelvin)      0.18757     0.03934     0.03252
 Rotational constants (GHZ):           3.90832     0.81978     0.67764
    1 imaginary frequencies ignored.
 Zero-point vibrational energy     311856.8 (Joules/Mol)
                                   74.53557 (Kcal/Mol)
 Warning -- explicit consideration of  10 degrees of freedom as
           vibrations may cause significant error
 Vibrational temperatures:    102.81   158.09   323.08   414.17   523.27
          (Kelvin)            561.17   585.71   613.39   717.30   773.21
                              921.71   930.34   997.36  1080.68  1177.37
                             1184.23  1218.11  1252.42  1404.25  1412.69
                             1465.76  1493.87  1632.06  1651.28  1738.49
                             1917.74  1932.09  1972.21  1992.58  2130.85
                             2216.30  2259.80  2356.73  2371.59  2399.72
                             4585.65  4586.73  4661.62  4661.91  5227.58
                             5409.47

 Zero-point correction=                           0.118780 (Hartree/Particle)
 Thermal correction to Energy=                    0.126770
 Thermal correction to Enthalpy=                  0.127715
 Thermal correction to Gibbs Free Energy=         0.085575
 Sum of electronic and zero-point Energies=           -492.026696
 Sum of electronic and thermal Energies=              -492.018705
 Sum of electronic and thermal Enthalpies=            -492.017761
 Sum of electronic and thermal Free Energies=         -492.059901

                     E (Thermal)             CV                S
                      KCal/Mol        Cal/Mol-Kelvin    Cal/Mol-Kelvin
 Total                   79.550             30.522             88.691
 Electronic               0.000              0.000              0.000
 Translational            0.889              2.981             40.679
 Rotational               0.889              2.981             29.383
 Vibrational             77.772             24.561             18.629
 Vibration     1          0.598              1.968              4.113
 Vibration     2          0.606              1.941              3.271
 Vibration     3          0.649              1.804              1.922
 Vibration     4          0.685              1.696              1.486
 Vibration     5          0.737              1.547              1.106
 Vibration     6          0.758              1.491              1.000
 Vibration     7          0.772              1.455              0.937
 Vibration     8          0.788              1.413              0.871
 Vibration     9          0.854              1.253              0.662
 Vibration    10          0.892              1.167              0.571

 Optimization completed.
    -- Stationary point found.
 Normal termination of Gaussian 09 at Thu Jun 20 16:45:24 2024.
