 Gaussian 09, Revision E.01,
 Gaussian 09:  ES64L-G09RevE.01 30-Nov-2015

 ----------------------------
 # opt freq b3lyp/6-31+g(d,p)
 ----------------------------

 ----------
 [No Title]
 ----------
 Symbolic Z-matrix:
 Charge =  1 Multiplicity = 1

 SCF Done:  E(RB3LYP) =  -492.389632569     A.U. after   17 cycles
 SCF Done:  E(RB3LYP) =  -492.461282232     A.U. after   14 cycles
 SCF Done:  E(RB3LYP) =  -492.485832029     A.U. after   14 cycles
 SCF Done:  E(RB3LYP) =  -492.491536627     A.U. after   12 cycles
 SCF Done:  E(RB3LYP) =  -492.493048194     A.U. after   12 cycles
 SCF Done:  E(RB3LYP) =  -492.493476594     A.U. after   12 cycles
 SCF Done:  E(RB3LYP) =  -492.493501631     A.U. after   11 cycles
 SCF Done:  E(RB3LYP) =  -492.493504979     A.U. after   10 cycles
 Optimization completed.
    -- Stationary point found.
 Normal termination of Gaussian 09 at Thu Jun 20 17:03:46 2024.

 ----------------------------------------------------------------------
 #N Geom=AllCheck Guess=TCheck SCRF=Check GenChk RB3LYP/6-31+G(d,p) Fre
 q
 ----------------------------------------------------------------------

 Structure from the checkpoint file:  "b3lyp4NiAnyang.chk"
 ----------
 [No Title]
 ----------
 Charge =  1 Multiplicity = 1

                         Standard orientation:
 ---------------------------------------------------------------------
 Center     Atomic      Atomic             Coordinates (Angstroms)
 Number     Number       Type             X           Y           Z
 ---------------------------------------------------------------------
      1          6           0       -0.007137   -1.217453    0.000003
      2          6           0        0.668262    0.038458    0.000002
      3          6           0       -0.060566    1.264637    0.000001
      4          6           0       -1.425774    1.233839    0.000000
      5          6           0       -2.122823   -0.018514   -0.000000
      6          6           0       -1.373773   -1.239746    0.000003
      7          7           0       -3.459143   -0.046270   -0.000003
      8          7           0        2.033678    0.110124    0.000001
      9          8           0        2.712561    1.120252    0.000001
     10          8           0        2.676786   -1.103424   -0.000005
     11          1           0        0.556885   -2.141532    0.000005
     12          1           0        0.477373    2.205644    0.000000
     13          1           0       -1.990867    2.160333   -0.000001
     14          1           0       -1.900486   -2.188544    0.000006
     15          1           0       -3.971097   -0.918554   -0.000005
     16          1           0       -4.006469    0.804292   -0.000006
     17          1           0        3.629009   -0.870580   -0.000010
 ---------------------------------------------------------------------

 SCF Done:  E(RB3LYP) =  -492.493504979     A.U. after    1 cycles

 The electronic state is 1-A.
 Alpha  occ. eigenvalues --  -19.42007 -19.38650 -14.75669 -14.55956 -10.45008
 Alpha  occ. eigenvalues --  -10.43242 -10.39620 -10.39453 -10.38157 -10.38152
 Alpha  occ. eigenvalues --   -1.41336  -1.25454  -1.13524  -1.07784  -1.00171
 Alpha  occ. eigenvalues --   -0.94869  -0.88943  -0.82714  -0.80271  -0.75669
 Alpha  occ. eigenvalues --   -0.73612  -0.72109  -0.71525  -0.70878  -0.64805
 Alpha  occ. eigenvalues --   -0.62722  -0.61984  -0.61220  -0.59529  -0.58409
 Alpha  occ. eigenvalues --   -0.53523  -0.53442  -0.51380  -0.49833  -0.45003
 Alpha  occ. eigenvalues --   -0.40895
 Alpha virt. eigenvalues --   -0.29157  -0.19068  -0.16532  -0.13942  -0.13144
 Alpha virt. eigenvalues --   -0.10897  -0.10219  -0.09543  -0.07777  -0.07573
 Alpha virt. eigenvalues --   -0.07138  -0.05499  -0.05471  -0.04399  -0.03705

 Mulliken charges:
               1
     1  C    0.204063
     2  C   -0.374863
     3  C   -0.036941
     4  C    0.050206
     5  C    0.212318
     6  C    0.015533
     7  N   -0.552182
     8  N   -0.347580
     9  O    0.047444
    10  O   -0.029472
    11  H    0.196178
    12  H    0.197003
    13  H    0.167303
    14  H    0.165543
    15  H    0.345429
    16  H    0.345693
    17  H    0.394323
 Sum of Mulliken charges =   1.00000

 Dipole moment (field-independent basis, Debye):
    X=             -3.8149    Y=             -1.0903    Z=             -0.0000  Tot=              3.9676
 Quadrupole moment (field-independent basis, Debye-Ang):
   XX=             -8.5568   YY=            -44.8750   ZZ=            -58.6410
   XY=             -4.6883   XZ=             -0.0000   YZ=             -0.0000

  Exact polarizability: 196.617   5.350  88.456   0.000  -0.000  45.078
 Approx polarizability: 453.699  35.668 151.120   0.000   0.000  66.356

                      1                      2                      3
                      A                      A                      A
 Frequencies --     96.0811               104.1430               220.1978
 Red. masses --      4.9395                 7.1734                 5.7423
 Frc consts  --      0.0269                 0.0458                 0.1640
 IR Inten    --      2.8125                 0.1275                 1.1244

                      4                      5                      6
                      A                      A                      A
 Frequencies --    260.5465               368.0995               396.2121
 Red. masses --      4.5961                 8.2263                 2.2351
 Frc consts  --      0.1838                 0.6567                 0.2067
 IR Inten    --      0.1647                 0.9472                22.5386

                      7                      8                      9
                      A                      A                      A
 Frequencies --    396.6713               445.3397               484.9213
 Red. masses --      3.0789                 1.2501                 2.0682
 Frc consts  --      0.2854                 0.1461                 0.2865
 IR Inten    --      0.2163               151.1604                 8.2554

                     10                     11                     12
                      A                      A                      A
 Frequencies --    532.4388               532.6816               559.0333
 Red. masses --      5.8883                 1.3349                 1.0649
 Frc consts  --      0.9835                 0.2232                 0.1961
 IR Inten    --     11.9704               186.8653                 0.1415

                     13                     14                     15
                      A                      A                      A
 Frequencies --    608.3494               630.6500               667.4252
 Red. masses --      5.9492                 6.8876                 5.4420
 Frc consts  --      1.2972                 1.6140                 1.4283
 IR Inten    --     26.3576                 4.6202                14.4523

                     16                     17                     18
                      A                      A                      A
 Frequencies --    728.7090               735.1131               812.5139
 Red. masses --      5.2792                 5.3196                 1.2757
 Frc consts  --      1.6517                 1.6937                 0.4962
 IR Inten    --      0.4965                14.3736                 0.3247

                     19                     20                     21
                      A                      A                      A
 Frequencies --    837.9015               856.4565               992.6882
 Red. masses --      5.6147                 1.8313                 1.2971
 Frc consts  --      2.3225                 0.7914                 0.7531
 IR Inten    --     26.8162                67.2837                 0.0784

                     22                     23                     24
                      A                      A                      A
 Frequencies --    997.4544               998.1416              1031.5001
 Red. masses --      3.1031                 1.3053                 3.1594
 Frc consts  --      1.8190                 0.7662                 1.9806
 IR Inten    --      2.6297                 0.1420               186.2006

                     25                     26                     27
                      A                      A                      A
 Frequencies --   1051.5132              1175.8313              1200.4458
 Red. masses --      1.8004                 1.1986                 1.2541
 Frc consts  --      1.1729                 0.9763                 1.0648
 IR Inten    --     73.9188                26.8585               421.4758

                     28                     29                     30
                      A                      A                      A
 Frequencies --   1276.7466              1349.8953              1385.0788
 Red. masses --      1.7836                 1.3843                 2.2981
 Frc consts  --      1.7130                 1.4862                 2.5976
 IR Inten    --    318.6581                29.2055               109.0618

                     31                     32                     33
                      A                      A                      A
 Frequencies --   1413.4246              1420.2014              1537.6236
 Red. masses --      2.5709                 4.2753                 4.7820
 Frc consts  --      3.0261                 5.0807                 6.6613
 IR Inten    --     33.1161                32.6025                84.1988

                     34                     35                     36
                      A                      A                      A
 Frequencies --   1550.3443              1564.9629              1643.6744
 Red. masses --      2.6898                 5.3358                 4.4804
 Frc consts  --      3.8092                 7.6994                 7.1319
 IR Inten    --     51.3852                 4.6388               977.5281

                     37                     38                     39
                      A                      A                      A
 Frequencies --   1681.3218              1706.8711              3211.6499
 Red. masses --      1.5979                 3.2269                 1.0915
 Frc consts  --      2.6614                 5.5390                 6.6335
 IR Inten    --    257.9914                94.2580                 0.2109

                     40                     41                     42
                      A                      A                      A
 Frequencies --   3212.0198              3239.1923              3251.7570
 Red. masses --      1.0923                 1.0953                 1.0947
 Frc consts  --      6.6396                 6.7713                 6.8202
 IR Inten    --      0.0435                 9.6695                 7.9602

                     43                     44                     45
                      A                      A                      A
 Frequencies --   3578.4616              3663.7431              3699.4051
 Red. masses --      1.0475                 1.0665                 1.1056
 Frc consts  --      7.9034                 8.4346                 8.9149
 IR Inten    --    375.2827               367.0740                83.8896

 - Thermochemistry -
 -------------------
 Temperature   298.150 Kelvin.  Pressure   1.00000 Atm.
 Atom     1 has atomic number  6 and mass  12.00000

 Molecular mass:   139.05075 amu.
 Principal axes and moments of inertia in atomic units:
                           1         2         3
     Eigenvalues --   481.224862204.998222686.22308
           X            0.99998  -0.00610  -0.00000
           Y            0.00610   0.99998  -0.00000
           Z            0.00000   0.00000   1.00000
 This molecule is an asymmetric top.
 Rotational symmetry number  1.
 Warning -- assumption of classical behavior for rotation
           may cause significant error
 Rotational temperatures (Kelvin)      0.17999     0.03928     0.03224
 Rotational constants (GHZ):           3.75031     0.81848     0.67185
 Zero-point vibrational energy     347559.6 (Joules/Mol)
                                   83.06875 (Kcal/Mol)
 Warning -- explicit consideration of  13 degrees of freedom as
           vibrations may cause significant error
 Vibrational temperatures:    138.24   149.84   316.82   374.87   529.61
          (Kelvin)            570.06   570.72   640.74   697.69   766.06
                              766.41   804.32   875.28   907.36   960.27
                             1048.45  1057.66  1169.02  1205.55  1232.25
                             1428.26  1435.11  1436.10  1484.10  1512.89
                             1691.76  1727.17  1836.95  1942.20  1992.82
                             2033.60  2043.35  2212.29  2230.60  2251.63
                             2364.88  2419.04  2455.80  4620.84  4621.37
                             4660.47  4678.55  5148.60  5271.30  5322.61

 Zero-point correction=                           0.132378 (Hartree/Particle)
 Thermal correction to Energy=                    0.140844
 Thermal correction to Enthalpy=                  0.141788
 Thermal correction to Gibbs Free Energy=         0.099103
 Sum of electronic and zero-point Energies=           -492.361127
 Sum of electronic and thermal Energies=              -492.352661
 Sum of electronic and thermal Enthalpies=            -492.351717
 Sum of electronic and thermal Free Energies=         -492.394402

                     E (Thermal)             CV                S
                      KCal/Mol        Cal/Mol-Kelvin    Cal/Mol-Kelvin
 Total                   88.381             33.378             89.839
 Electronic               0.000              0.000              0.000
 Translational            0.889              2.981             40.701
 Rotational               0.889              2.981             29.434
 Vibrational             86.604             27.416             19.704
 Vibration     1          0.603              1.952              3.532
 Vibration     2          0.605              1.946              3.375
 Vibration     3          0.647              1.810              1.957
 Vibration     4          0.669              1.745              1.658
 Vibration     5          0.741              1.538              1.088
 Vibration     6          0.763              1.478              0.977
 Vibration     7          0.763              1.477              0.975
 Vibration     8          0.805              1.371              0.810
 Vibration     9          0.841              1.283              0.697
 Vibration    10          0.887              1.178              0.582
 Vibration    11          0.888              1.178              0.581
 Vibration    12          0.915              1.120              0.526
 Vibration    13          0.967              1.014              0.436

 Optimization completed.
    -- Stationary point found.
 Normal termination of Gaussian 09 at Thu Jun 20 17:04:57 2024.
