 Gaussian 09, Revision E.01,
 Gaussian 09:  ES64L-G09RevE.01 30-Nov-2015

 -----------------------------
 # opt freq b3pw91/6-31+g(d,p)
 -----------------------------

 ----------
 [No Title]
 ----------
 Symbolic Z-matrix:
 Charge =  0 Multiplicity = 1

 SCF Done:  E(RB3PW91) =  -491.955170423     A.U. after   14 cycles
 SCF Done:  E(RB3PW91) =  -491.955417950     A.U. after   12 cycles
 SCF Done:  E(RB3PW91) =  -491.955152408     A.U. after   12 cycles
 SCF Done:  E(RB3PW91) =  -491.955425102     A.U. after    8 cycles
 SCF Done:  E(RB3PW91) =  -491.955448048     A.U. after   11 cycles
 Optimization completed.
    -- Stationary point found.
 Normal termination of Gaussian 09 at Sun Dec 15 18:59:57 2024.

 ----------------------------------------------------------------------
 #N Geom=AllCheck Guess=TCheck SCRF=Check GenChk RB3PW91/6-31+G(d,p) Fr
 eq
 ----------------------------------------------------------------------

 Structure from the checkpoint file:  "B3PW91PNA.chk"
 ----------
 [No Title]
 ----------
 Charge =  0 Multiplicity = 1

                         Standard orientation:
 ---------------------------------------------------------------------
 Center     Atomic      Atomic             Coordinates (Angstroms)
 Number     Number       Type             X           Y           Z
 ---------------------------------------------------------------------
      1          6           0       -0.022648    1.214272   -0.000093
      2          6           0       -0.711353   -0.000000   -0.000083
      3          6           0       -0.022648   -1.214273   -0.000023
      4          6           0        1.360591   -1.214279    0.000028
      5          6           0        2.079971    0.000000    0.000018
      6          6           0        1.360590    1.214278   -0.000043
      7          7           0        3.445165    0.000000    0.000072
      8          7           0       -2.161106   -0.000000   -0.000138
      9          8           0       -2.738641   -1.086974    0.000135
     10          8           0       -2.738639    1.086975    0.000069
     11          1           0       -0.582534    2.142528   -0.000141
     12          1           0       -0.582533   -2.142529   -0.000016
     13          1           0        1.898821   -2.158317    0.000076
     14          1           0        1.898820    2.158317   -0.000051
     15          1           0        3.965121    0.860234    0.000048
     16          1           0        3.965121   -0.860233    0.000100
 ---------------------------------------------------------------------

 SCF Done:  E(RB3PW91) =  -491.955448048     A.U. after    1 cycles

 The electronic state is 1-A.
 Alpha  occ. eigenvalues --  -19.16738 -19.16737 -14.55736 -14.37611 -10.26079
 Alpha  occ. eigenvalues --  -10.23283 -10.21184 -10.21183 -10.20478 -10.20478
 Alpha  occ. eigenvalues --   -1.22801  -1.05245  -0.96693  -0.88827  -0.80259
 Alpha  occ. eigenvalues --   -0.78309  -0.70237  -0.65203  -0.60889  -0.56851
 Alpha  occ. eigenvalues --   -0.55966  -0.54502  -0.53147  -0.50837  -0.47091
 Alpha  occ. eigenvalues --   -0.46327  -0.45136  -0.42756  -0.42143  -0.37286
 Alpha  occ. eigenvalues --   -0.34899  -0.30963  -0.30787  -0.28815  -0.28564
 Alpha  occ. eigenvalues --   -0.23944
 Alpha virt. eigenvalues --   -0.08670  -0.03561  -0.00773   0.00408   0.01778
 Alpha virt. eigenvalues --    0.02161   0.04700   0.05265   0.06891   0.07143
 Alpha virt. eigenvalues --    0.08453   0.09300   0.09533   0.10011   0.11474

 Mulliken charges:
               1
     1  C    0.076200
     2  C   -0.547300
     3  C    0.076201
     4  C    0.087523
     5  C   -0.125307
     6  C    0.087522
     7  N   -0.627109
     8  N   -0.177652
     9  O   -0.079528
    10  O   -0.079528
    11  H    0.190415
    12  H    0.190414
    13  H    0.144318
    14  H    0.144318
    15  H    0.319755
    16  H    0.319755
 Sum of Mulliken charges =  -0.00000

 Dipole moment (field-independent basis, Debye):
    X=              7.8708    Y=              0.0000    Z=             -0.0004  Tot=              7.8708
 Quadrupole moment (field-independent basis, Debye-Ang):
   XX=            -55.7467   YY=            -52.4307   ZZ=            -60.4009
   XY=             -0.0000   XZ=              0.0017   YZ=             -0.0002

  Exact polarizability: 155.057   0.000  98.057   0.000  -0.001  49.323
 Approx polarizability: 250.363   0.000 180.510   0.001  -0.003  70.754

 ******    1 imaginary frequencies (negative Signs) ******

                      1                      2                      3
                      A                      A                      A
 Frequencies --   -246.3460                72.5649               109.6586
 Red. masses --      1.2344                 7.6892                 5.8195
 Frc consts  --      0.0441                 0.0239                 0.0412
 IR Inten    --    231.3373                 0.0000                 0.0017

                      4                      5                      6
                      A                      A                      A
 Frequencies --    224.4275               287.2284               364.5648
 Red. masses --      6.4511                 5.5750                 9.4122
 Frc consts  --      0.1914                 0.2710                 0.7370
 IR Inten    --      0.2520                 3.6585                 0.0009

                      7                      8                      9
                      A                      A                      A
 Frequencies --    388.6838               411.2011               425.1730
 Red. masses --      3.0315                 1.1018                 2.4873
 Frc consts  --      0.2698                 0.1098                 0.2649
 IR Inten    --      1.0990                 0.0000                 0.0000

                     10                     11                     12
                      A                      A                      A
 Frequencies --    495.7238               540.6723               643.4985
 Red. masses --      2.6902                 6.9202                 6.8370
 Frc consts  --      0.3895                 1.1919                 1.6681
 IR Inten    --     19.9434                 2.5335                 1.0129

                     13                     14                     15
                      A                      A                      A
 Frequencies --    643.7424               692.0310               756.8796
 Red. masses --      6.9374                 3.2598                 7.7922
 Frc consts  --      1.6938                 0.9198                 2.6300
 IR Inten    --     14.9674                10.9741                22.4414

                     16                     17                     18
                      A                      A                      A
 Frequencies --    817.3937               828.6776               845.4968
 Red. masses --      1.2598                 6.0135                 1.9268
 Frc consts  --      0.4959                 2.4330                 0.8116
 IR Inten    --      0.0000                 1.6581                46.6891

                     19                     20                     21
                      A                      A                      A
 Frequencies --    879.6310               973.3882               981.3418
 Red. masses --      8.1995                 1.2820                 1.3280
 Frc consts  --      3.7380                 0.7157                 0.7535
 IR Inten    --     22.1055                 1.8765                 0.0000

                     22                     23                     24
                      A                      A                      A
 Frequencies --   1018.2563              1039.9912              1142.1914
 Red. masses --      2.7503                 1.4012                 2.1633
 Frc consts  --      1.6801                 0.8929                 1.6628
 IR Inten    --      1.5870                 0.1254               143.2766

                     25                     26                     27
                      A                      A                      A
 Frequencies --   1144.2683              1209.8266              1325.7513
 Red. masses --      1.1556                 1.4412                 1.3220
 Frc consts  --      0.8915                 1.2428                 1.3690
 IR Inten    --     16.1405                11.8317                 0.1234

                     28                     29                     30
                      A                      A                      A
 Frequencies --   1355.9231              1400.6021              1407.0433
 Red. masses --      2.9696                10.7581                 7.5863
 Frc consts  --      3.2168                12.4341                 8.8490
 IR Inten    --    225.2259               622.4179                 0.7784

                     31                     32                     33
                      A                      A                      A
 Frequencies --   1488.7765              1547.6130              1606.9535
 Red. masses --      3.6806                 2.7579                10.3552
 Frc consts  --      4.8064                 3.8918                15.7549
 IR Inten    --      1.3772                44.3603               134.5040

                     34                     35                     36
                      A                      A                      A
 Frequencies --   1654.6315              1660.5665              1678.1138
 Red. masses --      1.5680                 9.0965                 3.0372
 Frc consts  --      2.5292                14.7787                 5.0393
 IR Inten    --      2.1336               149.4192               457.8402

                     37                     38                     39
                      A                      A                      A
 Frequencies --   3199.7017              3200.2968              3246.9907
 Red. masses --      1.0906                 1.0903                 1.0930
 Frc consts  --      6.5785                 6.5794                 6.7894
 IR Inten    --      9.7480                12.1444                 0.3147

                     40                     41                     42
                      A                      A                      A
 Frequencies --   3247.1422              3656.1401              3785.8436
 Red. masses --      1.0936                 1.0459                 1.1050
 Frc consts  --      6.7937                 8.2375                 9.3310
 IR Inten    --      3.9267               124.4127                45.8812

 - Thermochemistry -
 -------------------
 Temperature   298.150 Kelvin.  Pressure   1.00000 Atm.
 Atom     1 has atomic number  6 and mass  12.00000

 Molecular mass:   138.04293 amu.
 Principal axes and moments of inertia in atomic units:
                           1         2         3
     Eigenvalues --   459.612482188.394892648.00736
           X            1.00000   0.00000  -0.00000
           Y           -0.00000   1.00000   0.00003
           Z            0.00000  -0.00003   1.00000
 This molecule is an asymmetric top.
 Rotational symmetry number  1.
 Warning -- assumption of classical behavior for rotation
           may cause significant error
 Rotational temperatures (Kelvin)      0.18845     0.03958     0.03271
 Rotational constants (GHZ):           3.92666     0.82469     0.68155
    1 imaginary frequencies ignored.
 Zero-point vibrational energy     313413.2 (Joules/Mol)
                                   74.90756 (Kcal/Mol)
 Warning -- explicit consideration of  10 degrees of freedom as
           vibrations may cause significant error
 Vibrational temperatures:    104.40   157.77   322.90   413.26   524.53
          (Kelvin)            559.23   591.63   611.73   713.24   777.91
                              925.85   926.20   995.68  1088.98  1176.05
                             1192.28  1216.48  1265.59  1400.49  1411.93
                             1465.04  1496.31  1643.36  1646.34  1740.67
                             1907.46  1950.87  2015.15  2024.42  2142.01
                             2226.67  2312.04  2380.64  2389.18  2414.43
                             4603.65  4604.51  4671.69  4671.91  5260.36
                             5446.98

 Zero-point correction=                           0.119373 (Hartree/Particle)
 Thermal correction to Energy=                    0.127352
 Thermal correction to Enthalpy=                  0.128296
 Thermal correction to Gibbs Free Energy=         0.086188
 Sum of electronic and zero-point Energies=           -491.836075
 Sum of electronic and thermal Energies=              -491.828096
 Sum of electronic and thermal Enthalpies=            -491.827152
 Sum of electronic and thermal Free Energies=         -491.869260

                     E (Thermal)             CV                S
                      KCal/Mol        Cal/Mol-Kelvin    Cal/Mol-Kelvin
 Total                   79.915             30.450             88.624
 Electronic               0.000              0.000              0.000
 Translational            0.889              2.981             40.679
 Rotational               0.889              2.981             29.367
 Vibrational             78.137             24.488             18.578
 Vibration     1          0.599              1.967              4.083
 Vibration     2          0.606              1.941              3.275
 Vibration     3          0.649              1.804              1.923
 Vibration     4          0.684              1.697              1.490
 Vibration     5          0.738              1.545              1.103
 Vibration     6          0.757              1.494              1.005
 Vibration     7          0.775              1.446              0.922
 Vibration     8          0.787              1.415              0.875
 Vibration     9          0.851              1.260              0.669
 Vibration    10          0.896              1.160              0.564

 Optimization completed.
    -- Stationary point found.
 Normal termination of Gaussian 09 at Sun Dec 15 19:00:27 2024.
