 Gaussian 09, Revision E.01,
 Gaussian 09:  ES64L-G09RevE.01 30-Nov-2015

 -----------------------------
 # opt freq b3pw91/6-31+g(d,p)
 -----------------------------

 ----------
 [No Title]
 ----------
 Symbolic Z-matrix:
 Charge =  1 Multiplicity = 1

 SCF Done:  E(RB3PW91) =  -492.304020310     A.U. after   17 cycles
 SCF Done:  E(RB3PW91) =  -492.304279591     A.U. after   12 cycles
 SCF Done:  E(RB3PW91) =  -492.304291253     A.U. after   11 cycles
 SCF Done:  E(RB3PW91) =  -492.304291816     A.U. after   11 cycles
 SCF Done:  E(RB3PW91) =  -492.304295445     A.U. after   10 cycles
 Optimization completed.
    -- Stationary point found.
 Normal termination of Gaussian 09 at Sun Dec 15 20:07:10 2024.

 ----------------------------------------------------------------------
 #N Geom=AllCheck Guess=TCheck SCRF=Check GenChk RB3PW91/6-31+G(d,p) Fr
 eq
 ----------------------------------------------------------------------

 Structure from the checkpoint file:  "B3PW91PNAyang.chk"
 ----------
 [No Title]
 ----------
 Charge =  1 Multiplicity = 1

                         Standard orientation:
 ---------------------------------------------------------------------
 Center     Atomic      Atomic             Coordinates (Angstroms)
 Number     Number       Type             X           Y           Z
 ---------------------------------------------------------------------
      1          6           0       -0.057318    1.260419   -0.000021
      2          6           0        0.667415    0.036333   -0.000068
      3          6           0       -0.006506   -1.216048   -0.000043
      4          6           0       -1.371446   -1.237151   -0.000004
      5          6           0       -2.117853   -0.017584    0.000025
      6          6           0       -1.420885    1.231421    0.000017
      7          7           0       -3.450875   -0.043897    0.000061
      8          7           0        2.030763    0.107099   -0.000109
      9          8           0        2.666538   -1.095343    0.000053
     10          8           0        2.704081    1.114584    0.000029
     11          1           0        0.482190    2.201352   -0.000031
     12          1           0        0.556485   -2.141698   -0.000066
     13          1           0       -1.897923   -2.186524    0.000002
     14          1           0       -1.983821    2.159680    0.000037
     15          1           0       -3.996204    0.806563    0.000082
     16          1           0       -3.962836   -0.914815    0.000067
     17          1           0        3.617496   -0.865246    0.000148
 ---------------------------------------------------------------------

 SCF Done:  E(RB3PW91) =  -492.304295445     A.U. after    1 cycles

 The electronic state is 1-A.
 Alpha  occ. eigenvalues --  -19.41159 -19.37546 -14.74826 -14.54754 -10.43560
 Alpha  occ. eigenvalues --  -10.41794 -10.38262 -10.38080 -10.36776 -10.36757
 Alpha  occ. eigenvalues --   -1.42628  -1.26448  -1.13962  -1.08309  -1.00587
 Alpha  occ. eigenvalues --   -0.95161  -0.89295  -0.83126  -0.80596  -0.75957
 Alpha  occ. eigenvalues --   -0.73993  -0.72285  -0.72239  -0.71075  -0.65011
 Alpha  occ. eigenvalues --   -0.62781  -0.61967  -0.61189  -0.59423  -0.58681
 Alpha  occ. eigenvalues --   -0.53760  -0.53363  -0.51615  -0.49996  -0.45178
 Alpha  occ. eigenvalues --   -0.40965
 Alpha virt. eigenvalues --   -0.29089  -0.19031  -0.16376  -0.12680  -0.11864
 Alpha virt. eigenvalues --   -0.09771  -0.09185  -0.08349  -0.06708  -0.06450
 Alpha virt. eigenvalues --   -0.05853  -0.04527  -0.04299  -0.03305  -0.02461

 Mulliken charges:
               1
     1  C    0.090275
     2  C   -0.674646
     3  C    0.303218
     4  C    0.080805
     5  C   -0.080395
     6  C    0.134224
     7  N   -0.532301
     8  N   -0.265771
     9  O   -0.028785
    10  O    0.037996
    11  H    0.220664
    12  H    0.219967
    13  H    0.190898
    14  H    0.192519
    15  H    0.356660
    16  H    0.356381
    17  H    0.398288
 Sum of Mulliken charges =   1.00000

 Dipole moment (field-independent basis, Debye):
    X=             -3.6279    Y=             -1.1097    Z=              0.0001  Tot=              3.7938
 Quadrupole moment (field-independent basis, Debye-Ang):
   XX=             -7.5049   YY=            -44.1004   ZZ=            -58.3482
   XY=             -4.7293   XZ=             -0.0001   YZ=             -0.0001

  Exact polarizability: 193.436   5.225  87.297   0.000   0.001  44.117
 Approx polarizability: 444.404  34.037 148.773  -0.004   0.001  64.041

                      1                      2                      3
                      A                      A                      A
 Frequencies --     95.4459               104.1838               219.5930
 Red. masses --      4.9211                 7.1685                 5.7332
 Frc consts  --      0.0264                 0.0458                 0.1629
 IR Inten    --      3.1956                 0.1057                 1.1884

                      4                      5                      6
                      A                      A                      A
 Frequencies --    259.8555               368.5776               395.4594
 Red. masses --      4.5676                 8.2152                 3.0435
 Frc consts  --      0.1817                 0.6575                 0.2804
 IR Inten    --      0.0947                 0.8613                 0.3057

                      7                      8                      9
                      A                      A                      A
 Frequencies --    396.1554               452.3995               486.1181
 Red. masses --      2.3615                 1.2879                 1.8923
 Frc consts  --      0.2184                 0.1553                 0.2635
 IR Inten    --     15.3569               163.0445                 1.6085

                     10                     11                     12
                      A                      A                      A
 Frequencies --    532.9178               536.6447               559.3614
 Red. masses --      1.3278                 5.9420                 1.0647
 Frc consts  --      0.2222                 1.0082                 0.1963
 IR Inten    --    191.6412                11.2528                 0.1742

                     13                     14                     15
                      A                      A                      A
 Frequencies --    614.6998               628.3235               676.2534
 Red. masses --      5.9296                 6.8288                 4.9904
 Frc consts  --      1.3201                 1.5884                 1.3446
 IR Inten    --     30.5728                 4.2006                16.4137

                     16                     17                     18
                      A                      A                      A
 Frequencies --    729.2351               745.7118               811.2741
 Red. masses --      5.9957                 5.0761                 1.2773
 Frc consts  --      1.8786                 1.6631                 0.4953
 IR Inten    --      1.3056                 7.0121                 0.4241

                     19                     20                     21
                      A                      A                      A
 Frequencies --    844.7450               853.8914               989.7872
 Red. masses --      5.6429                 1.8369                 1.2833
 Frc consts  --      2.3725                 0.7891                 0.7408
 IR Inten    --     23.0763                70.4542                 0.1526

                     22                     23                     24
                      A                      A                      A
 Frequencies --    996.3063               999.1600              1044.3805
 Red. masses --      1.3125                 2.9737                 1.6294
 Frc consts  --      0.7676                 1.7491                 1.0471
 IR Inten    --      0.1292                 1.3239                36.8946

                     25                     26                     27
                      A                      A                      A
 Frequencies --   1068.0668              1173.9220              1201.5504
 Red. masses --      3.7739                 1.1754                 1.2062
 Frc consts  --      2.5365                 0.9544                 1.0260
 IR Inten    --    216.7065                20.5764               377.9523

                     28                     29                     30
                      A                      A                      A
 Frequencies --   1282.5031              1345.2708              1399.8671
 Red. masses --      1.7713                 1.3532                 2.0198
 Frc consts  --      1.7166                 1.4429                 2.3321
 IR Inten    --    373.0689                27.0991                93.5145

                     31                     32                     33
                      A                      A                      A
 Frequencies --   1424.7498              1435.3846              1550.3341
 Red. masses --      3.0803                 4.2558                 5.0411
 Frc consts  --      3.6841                 5.1662                 7.1389
 IR Inten    --     12.8551                44.6298                79.4374

                     34                     35                     36
                      A                      A                      A
 Frequencies --   1560.2732              1577.5280              1662.8744
 Red. masses --      2.7222                 5.8308                 4.6636
 Frc consts  --      3.9046                 8.5493                 7.5979
 IR Inten    --     34.1703                 9.1718               811.7050

                     37                     38                     39
                      A                      A                      A
 Frequencies --   1686.7061              1725.8886              3222.9127
 Red. masses --      1.5073                 4.6697                 1.0917
 Frc consts  --      2.5266                 8.1952                 6.6811
 IR Inten    --    526.0421                59.3351                 0.3231

                     40                     41                     42
                      A                      A                      A
 Frequencies --   3223.1217              3247.5208              3258.6418
 Red. masses --      1.0921                 1.0959                 1.0953
 Frc consts  --      6.6844                 6.8097                 6.8525
 IR Inten    --      0.0143                10.2768                 8.4420

                     43                     44                     45
                      A                      A                      A
 Frequencies --   3601.1076              3691.7898              3725.4049
 Red. masses --      1.0477                 1.0663                 1.1056
 Frc consts  --      8.0048                 8.5624                 9.0408
 IR Inten    --    378.2165               378.0992                87.8557

 - Thermochemistry -
 -------------------
 Temperature   298.150 Kelvin.  Pressure   1.00000 Atm.
 Atom     1 has atomic number  6 and mass  12.00000

 Molecular mass:   139.05075 amu.
 Principal axes and moments of inertia in atomic units:
                           1         2         3
     Eigenvalues --   478.149512193.013022671.16253
           X            0.99998  -0.00609   0.00001
           Y            0.00609   0.99998  -0.00000
           Z           -0.00001   0.00000   1.00000
 This molecule is an asymmetric top.
 Rotational symmetry number  1.
 Warning -- assumption of classical behavior for rotation
           may cause significant error
 Rotational temperatures (Kelvin)      0.18114     0.03950     0.03243
 Rotational constants (GHZ):           3.77443     0.82295     0.67564
 Zero-point vibrational energy     349344.8 (Joules/Mol)
                                   83.49542 (Kcal/Mol)
 Warning -- explicit consideration of  13 degrees of freedom as
           vibrations may cause significant error
 Vibrational temperatures:    137.33   149.90   315.94   373.87   530.30
          (Kelvin)            568.98   569.98   650.90   699.41   766.75
                              772.11   804.80   884.41   904.02   972.98
                             1049.21  1072.91  1167.24  1215.40  1228.56
                             1424.08  1433.46  1437.57  1502.63  1536.71
                             1689.01  1728.76  1845.23  1935.54  2014.09
                             2049.89  2065.20  2230.58  2244.88  2269.71
                             2392.50  2426.79  2483.17  4637.05  4637.35
                             4672.45  4688.45  5181.18  5311.66  5360.02

 Zero-point correction=                           0.133058 (Hartree/Particle)
 Thermal correction to Energy=                    0.141502
 Thermal correction to Enthalpy=                  0.142446
 Thermal correction to Gibbs Free Energy=         0.099795
 Sum of electronic and zero-point Energies=           -492.171237
 Sum of electronic and thermal Energies=              -492.162794
 Sum of electronic and thermal Enthalpies=            -492.161850
 Sum of electronic and thermal Free Energies=         -492.204500

                     E (Thermal)             CV                S
                      KCal/Mol        Cal/Mol-Kelvin    Cal/Mol-Kelvin
 Total                   88.794             33.249             89.766
 Electronic               0.000              0.000              0.000
 Translational            0.889              2.981             40.701
 Rotational               0.889              2.981             29.417
 Vibrational             87.016             27.287             19.648
 Vibration     1          0.603              1.952              3.545
 Vibration     2          0.605              1.946              3.375
 Vibration     3          0.647              1.811              1.962
 Vibration     4          0.668              1.746              1.663
 Vibration     5          0.741              1.537              1.086
 Vibration     6          0.762              1.480              0.979
 Vibration     7          0.763              1.478              0.977
 Vibration     8          0.811              1.356              0.789
 Vibration     9          0.842              1.281              0.694
 Vibration    10          0.888              1.177              0.581
 Vibration    11          0.892              1.169              0.573
 Vibration    12          0.915              1.119              0.525
 Vibration    13          0.974              1.001              0.425

 Optimization completed.
    -- Stationary point found.
 Normal termination of Gaussian 09 at Sun Dec 15 20:07:47 2024.
