 Gaussian 09, Revision E.01,
 Gaussian 09:  ES64L-G09RevE.01 30-Nov-2015

 --------------------------------
 # opt freq cam-b3lyp/6-31+g(d,p)
 --------------------------------

 ----------
 [No Title]
 ----------
 Symbolic Z-matrix:
 Charge =  0 Multiplicity = 1

 SCF Done:  E(RCAM-B3LYP) =  -491.914212275     A.U. after   16 cycles
 SCF Done:  E(RCAM-B3LYP) =  -491.914696430     A.U. after   13 cycles
 SCF Done:  E(RCAM-B3LYP) =  -491.911948401     A.U. after   14 cycles
 SCF Done:  E(RCAM-B3LYP) =  -491.914731361     A.U. after   10 cycles
 SCF Done:  E(RCAM-B3LYP) =  -491.914751468     A.U. after   11 cycles
 SCF Done:  E(RCAM-B3LYP) =  -491.914752632     A.U. after   10 cycles
 Optimization completed.
    -- Stationary point found.
 Normal termination of Gaussian 09 at Thu Jun 20 16:53:13 2024.

 ----------------------------------------------------------------------
 #N Geom=AllCheck Guess=TCheck SCRF=Check GenChk RCAM-B3LYP/6-31+G(d,p)
  Freq
 ----------------------------------------------------------------------

 Structure from the checkpoint file:  "camb3lyp4NiAn.chk"
 ----------
 [No Title]
 ----------
 Charge =  0 Multiplicity = 1

                         Standard orientation:
 ---------------------------------------------------------------------
 Center     Atomic      Atomic             Coordinates (Angstroms)
 Number     Number       Type             X           Y           Z
 ---------------------------------------------------------------------
      1          6           0        0.022374   -1.211577    0.000018
      2          6           0        0.707391    0.000000    0.000062
      3          6           0        0.022374    1.211577    0.000089
      4          6           0       -1.358795    1.211108    0.000074
      5          6           0       -2.074734    0.000000    0.000031
      6          6           0       -1.358795   -1.211108    0.000004
      7          7           0       -3.442011   -0.000000    0.000020
      8          7           0        2.159657    0.000000    0.000076
      9          8           0        2.735842    1.082865   -0.000125
     10          8           0        2.735840   -1.082866   -0.000191
     11          1           0        0.581679   -2.138642   -0.000005
     12          1           0        0.581679    2.138643    0.000120
     13          1           0       -1.898374    2.153012    0.000095
     14          1           0       -1.898373   -2.153012   -0.000031
     15          1           0       -3.961237   -0.860796   -0.000024
     16          1           0       -3.961237    0.860795    0.000028
 ---------------------------------------------------------------------

 SCF Done:  E(RCAM-B3LYP) =  -491.914752632     A.U. after    1 cycles

 The electronic state is 1-A.
 Alpha  occ. eigenvalues --  -19.25580 -19.25577 -14.65210 -14.45427 -10.34632
 Alpha  occ. eigenvalues --  -10.31867 -10.29837 -10.29835 -10.28826 -10.28826
 Alpha  occ. eigenvalues --   -1.31358  -1.13450  -1.04187  -0.96884  -0.88014
 Alpha  occ. eigenvalues --   -0.86114  -0.77557  -0.72550  -0.67934  -0.64018
 Alpha  occ. eigenvalues --   -0.62541  -0.61378  -0.60873  -0.57903  -0.53792
 Alpha  occ. eigenvalues --   -0.52992  -0.51803  -0.49196  -0.48895  -0.43575
 Alpha  occ. eigenvalues --   -0.41089  -0.37735  -0.37236  -0.35854  -0.33875
 Alpha  occ. eigenvalues --   -0.28810
 Alpha virt. eigenvalues --   -0.04090   0.01108   0.01229   0.03514   0.04095
 Alpha virt. eigenvalues --    0.05083   0.06304   0.06768   0.08836   0.09029
 Alpha virt. eigenvalues --    0.10282   0.10810   0.11494   0.12119   0.13756

 Mulliken charges:
               1
     1  C   -0.085029
     2  C   -0.191283
     3  C   -0.085028
     4  C   -0.030567
     5  C    0.273311
     6  C   -0.030568
     7  N   -0.679139
     8  N   -0.237083
     9  O   -0.082965
    10  O   -0.082965
    11  H    0.175960
    12  H    0.175960
    13  H    0.127621
    14  H    0.127621
    15  H    0.312076
    16  H    0.312076
 Sum of Mulliken charges =  -0.00000

 Dipole moment (field-independent basis, Debye):
    X=             -7.5999    Y=              0.0000    Z=              0.0005  Tot=              7.5999
 Quadrupole moment (field-independent basis, Debye-Ang):
   XX=            -57.5510   YY=            -53.2238   ZZ=            -60.8802
   XY=              0.0000   XZ=              0.0019   YZ=              0.0002

  Exact polarizability: 146.478   0.000  97.928  -0.002   0.001  50.006
 Approx polarizability: 163.523   0.000 136.994  -0.002   0.002  62.214

 ******    1 imaginary frequencies (negative Signs) ******

                      1                      2                      3
                      A                      A                      A
 Frequencies --   -233.4538                70.7303               113.1512
 Red. masses --      1.2246                 7.7367                 5.8765
 Frc consts  --      0.0393                 0.0228                 0.0443
 IR Inten    --    241.0753                 0.0000                 0.0321

                      4                      5                      6
                      A                      A                      A
 Frequencies --    227.7298               293.8319               369.6927
 Red. masses --      6.4530                 5.6958                 9.4434
 Frc consts  --      0.1972                 0.2897                 0.7604
 IR Inten    --      0.3088                 3.1688                 0.0244

                      7                      8                      9
                      A                      A                      A
 Frequencies --    394.0116               405.7728               432.4302
 Red. masses --      3.0488                 1.0170                 3.0202
 Frc consts  --      0.2789                 0.0987                 0.3327
 IR Inten    --      0.9454                 0.0000                 0.0000

                     10                     11                     12
                      A                      A                      A
 Frequencies --    507.5639               544.0860               650.7431
 Red. masses --      2.6680                 6.8158                 6.8991
 Frc consts  --      0.4050                 1.1888                 1.7213
 IR Inten    --     18.5923                 2.8880                18.8859

                     13                     14                     15
                      A                      A                      A
 Frequencies --    653.6984               704.4670               766.9884
 Red. masses --      6.8490                 3.1243                 7.5396
 Frc consts  --      1.7244                 0.9135                 2.6132
 IR Inten    --      1.0610                12.2363                22.4041

                     16                     17                     18
                      A                      A                      A
 Frequencies --    836.6059               838.9380               866.3529
 Red. masses --      1.2585                 6.0101                 1.9303
 Frc consts  --      0.5190                 2.4923                 0.8536
 IR Inten    --      0.0000                 1.7884                48.5132

                     19                     20                     21
                      A                      A                      A
 Frequencies --    890.5322               998.3584              1006.8615
 Red. masses --      8.2285                 1.3171                 1.3369
 Frc consts  --      3.8448                 0.7735                 0.7985
 IR Inten    --     26.4234                 1.2517                 0.0000

                     22                     23                     24
                      A                      A                      A
 Frequencies --   1031.6110              1047.9973              1153.2789
 Red. masses --      2.7249                 1.3952                 2.1420
 Frc consts  --      1.7085                 0.9028                 1.6786
 IR Inten    --      2.0703                 0.0779               153.8689

                     25                     26                     27
                      A                      A                      A
 Frequencies --   1154.2691              1219.7548              1342.8727
 Red. masses --      1.1691                 1.4525                 1.3180
 Frc consts  --      0.9177                 1.2733                 1.4004
 IR Inten    --     15.6102                11.9475                 0.0835

                     28                     29                     30
                      A                      A                      A
 Frequencies --   1360.3644              1384.2400              1433.8563
 Red. masses --      3.0294                 8.0554                11.6910
 Frc consts  --      3.3031                 9.0941                14.1616
 IR Inten    --    191.3789                 0.7358               606.6330

                     31                     32                     33
                      A                      A                      A
 Frequencies --   1503.1120              1565.7349              1632.9532
 Red. masses --      3.5048                 2.6727                10.3128
 Frc consts  --      4.6654                 3.8605                16.2022
 IR Inten    --      1.8418                45.7471               149.7395

                     34                     35                     36
                      A                      A                      A
 Frequencies --   1664.4600              1690.0852              1692.8828
 Red. masses --      1.3496                 9.1380                 4.4067
 Frc consts  --      2.2030                15.3787                 7.4408
 IR Inten    --     42.2808               174.1627               436.9768

                     37                     38                     39
                      A                      A                      A
 Frequencies --   3213.0462              3213.7798              3261.7588
 Red. masses --      1.0913                 1.0910                 1.0936
 Frc consts  --      6.6376                 6.6390                 6.8548
 IR Inten    --      7.8858                11.3831                 1.0528

                     40                     41                     42
                      A                      A                      A
 Frequencies --   3262.0823              3661.9108              3787.9752
 Red. masses --      1.0942                 1.0459                 1.1053
 Frc consts  --      6.8599                 8.2634                 9.3442
 IR Inten    --      3.9006               124.8439                47.7932

 - Thermochemistry -
 -------------------
 Temperature   298.150 Kelvin.  Pressure   1.00000 Atm.
 Atom     1 has atomic number  6 and mass  12.00000

 Molecular mass:   138.04293 amu.
 Principal axes and moments of inertia in atomic units:
                           1         2         3
     Eigenvalues --   457.097082183.414682640.51176
           X            1.00000   0.00000   0.00002
           Y            0.00000   1.00000  -0.00003
           Z           -0.00002   0.00003   1.00000
 This molecule is an asymmetric top.
 Rotational symmetry number  1.
 Warning -- assumption of classical behavior for rotation
           may cause significant error
 Rotational temperatures (Kelvin)      0.18949     0.03967     0.03280
 Rotational constants (GHZ):           3.94827     0.82657     0.68348
    1 imaginary frequencies ignored.
 Zero-point vibrational energy     316116.6 (Joules/Mol)
                                   75.55368 (Kcal/Mol)
 Warning -- explicit consideration of  10 degrees of freedom as
           vibrations may cause significant error
 Vibrational temperatures:    101.77   162.80   327.65   422.76   531.90
          (Kelvin)            566.89   583.82   622.17   730.27   782.82
                              936.27   940.52  1013.57  1103.52  1203.69
                             1207.04  1246.49  1281.28  1436.41  1448.65
                             1484.26  1507.83  1659.31  1660.73  1754.95
                             1932.09  1957.26  1991.61  2063.00  2162.64
                             2252.74  2349.45  2394.78  2431.65  2435.68
                             4622.85  4623.91  4692.94  4693.40  5268.67
                             5450.04

 Zero-point correction=                           0.120402 (Hartree/Particle)
 Thermal correction to Energy=                    0.128296
 Thermal correction to Enthalpy=                  0.129240
 Thermal correction to Gibbs Free Energy=         0.087274
 Sum of electronic and zero-point Energies=           -491.794350
 Sum of electronic and thermal Energies=              -491.786456
 Sum of electronic and thermal Enthalpies=            -491.785512
 Sum of electronic and thermal Free Energies=         -491.827478

                     E (Thermal)             CV                S
                      KCal/Mol        Cal/Mol-Kelvin    Cal/Mol-Kelvin
 Total                   80.507             30.068             88.325
 Electronic               0.000              0.000              0.000
 Translational            0.889              2.981             40.679
 Rotational               0.889              2.981             29.356
 Vibrational             78.730             24.107             18.290
 Vibration     1          0.598              1.968              4.133
 Vibration     2          0.607              1.939              3.214
 Vibration     3          0.651              1.799              1.897
 Vibration     4          0.689              1.685              1.452
 Vibration     5          0.742              1.534              1.081
 Vibration     6          0.761              1.483              0.985
 Vibration     7          0.771              1.458              0.942
 Vibration     8          0.793              1.400              0.851
 Vibration     9          0.863              1.233              0.639
 Vibration    10          0.899              1.153              0.557

 Optimization completed.
    -- Stationary point found.
 Normal termination of Gaussian 09 at Thu Jun 20 16:54:36 2024.
