 Gaussian 09, Revision E.01,
 Gaussian 09:  ES64L-G09RevE.01 30-Nov-2015

 --------------------------------
 # opt freq cam-b3lyp/6-31+g(d,p)
 --------------------------------

 ----------
 [No Title]
 ----------
 Symbolic Z-matrix:
 Charge =  1 Multiplicity = 1

 SCF Done:  E(RCAM-B3LYP) =  -492.255165202     A.U. after   16 cycles
 SCF Done:  E(RCAM-B3LYP) =  -492.255765803     A.U. after   12 cycles
 SCF Done:  E(RCAM-B3LYP) =  -492.255791986     A.U. after   10 cycles
 SCF Done:  E(RCAM-B3LYP) =  -492.255794992     A.U. after    9 cycles
 SCF Done:  E(RCAM-B3LYP) =  -492.255795564     A.U. after    9 cycles
 Optimization completed.
    -- Stationary point found.
 Normal termination of Gaussian 09 at Thu Jun 20 17:08:12 2024.

 ----------------------------------------------------------------------
 #N Geom=AllCheck Guess=TCheck SCRF=Check GenChk RCAM-B3LYP/6-31+G(d,p)
  Freq
 ----------------------------------------------------------------------

 Structure from the checkpoint file:  "camb3lyp4NiAnyang.chk"
 ----------
 [No Title]
 ----------
 Charge =  1 Multiplicity = 1

                         Standard orientation:
 ---------------------------------------------------------------------
 Center     Atomic      Atomic             Coordinates (Angstroms)
 Number     Number       Type             X           Y           Z
 ---------------------------------------------------------------------
      1          6           0        0.007951   -1.215992   -0.000011
      2          6           0       -0.667098    0.036856   -0.000015
      3          6           0        0.059463    1.260549   -0.000005
      4          6           0        1.417566    1.231634    0.000003
      5          6           0        2.112380   -0.017624    0.000004
      6          6           0        1.367115   -1.237317   -0.000003
      7          7           0        3.441767   -0.044763    0.000011
      8          7           0       -2.023380    0.105838   -0.000024
      9          8           0       -2.697607    1.109819    0.000011
     10          8           0       -2.662564   -1.089518    0.000016
     11          1           0       -0.556748   -2.139542   -0.000016
     12          1           0       -0.480556    2.200165   -0.000006
     13          1           0        1.983823    2.156541    0.000008
     14          1           0        1.896601   -2.183732   -0.000003
     15          1           0        3.952755   -0.916686    0.000011
     16          1           0        3.987382    0.805957    0.000016
     17          1           0       -3.614861   -0.861275    0.000041
 ---------------------------------------------------------------------

 SCF Done:  E(RCAM-B3LYP) =  -492.255795564     A.U. after    1 cycles

 The electronic state is 1-A.
 Alpha  occ. eigenvalues --  -19.49742 -19.46136 -14.84235 -14.62788 -10.52478
 Alpha  occ. eigenvalues --  -10.50126 -10.46996 -10.46800 -10.45053 -10.45011
 Alpha  occ. eigenvalues --   -1.50990  -1.34308  -1.21758  -1.16389  -1.08414
 Alpha  occ. eigenvalues --   -1.03000  -0.96572  -0.90447  -0.87798  -0.82991
 Alpha  occ. eigenvalues --   -0.81108  -0.79916  -0.79122  -0.77726  -0.71937
 Alpha  occ. eigenvalues --   -0.69291  -0.68606  -0.67836  -0.65968  -0.65464
 Alpha  occ. eigenvalues --   -0.60463  -0.59511  -0.57612  -0.56658  -0.50648
 Alpha  occ. eigenvalues --   -0.45385
 Alpha virt. eigenvalues --   -0.24973  -0.13890  -0.11185  -0.10404  -0.09340
 Alpha virt. eigenvalues --   -0.07731  -0.06704  -0.05910  -0.04671  -0.04180
 Alpha virt. eigenvalues --   -0.02906  -0.01828  -0.01506  -0.01044  -0.00604

 Mulliken charges:
               1
     1  C    0.187368
     2  C   -0.379922
     3  C   -0.066515
     4  C    0.019795
     5  C    0.298826
     6  C   -0.005509
     7  N   -0.579813
     8  N   -0.321424
     9  O    0.024840
    10  O   -0.037824
    11  H    0.204658
    12  H    0.206301
    13  H    0.174856
    14  H    0.173055
    15  H    0.349357
    16  H    0.349688
    17  H    0.402262
 Sum of Mulliken charges =   1.00000

 Dipole moment (field-independent basis, Debye):
    X=              3.4871    Y=             -1.1310    Z=              0.0000  Tot=              3.6660
 Quadrupole moment (field-independent basis, Debye-Ang):
   XX=             -8.9494   YY=            -44.9985   ZZ=            -58.7568
   XY=              4.8114   XZ=             -0.0000   YZ=             -0.0000

  Exact polarizability: 196.818  -6.354  86.200   0.000   0.000  44.672
 Approx polarizability: 261.057 -18.513 113.570   0.000   0.000  56.630

                      1                      2                      3
                      A                      A                      A
 Frequencies --     96.4767               107.4893               223.6139
 Red. masses --      4.9362                 7.2392                 5.7262
 Frc consts  --      0.0271                 0.0493                 0.1687
 IR Inten    --      2.9659                 0.0509                 1.1432

                      4                      5                      6
                      A                      A                      A
 Frequencies --    259.0320               373.1253               401.7344
 Red. masses --      4.5826                 8.2264                 3.0363
 Frc consts  --      0.1812                 0.6748                 0.2887
 IR Inten    --      0.1112                 2.0247                 0.2137

                      7                      8                      9
                      A                      A                      A
 Frequencies --    403.0095               457.5218               490.9099
 Red. masses --      2.3550                 1.2973                 1.9084
 Frc consts  --      0.2254                 0.1600                 0.2710
 IR Inten    --     17.1240               165.7326                 0.2947

                     10                     11                     12
                      A                      A                      A
 Frequencies --    543.2811               559.4294               572.4278
 Red. masses --      5.8836                 1.3038                 1.0600
 Frc consts  --      1.0232                 0.2404                 0.2046
 IR Inten    --     10.9363               196.9996                 0.4062

                     13                     14                     15
                      A                      A                      A
 Frequencies --    623.1276               636.5566               691.5754
 Red. masses --      5.9124                 6.8459                 4.4019
 Frc consts  --      1.3526                 1.6344                 1.2404
 IR Inten    --     42.3130                 4.5140                14.0185

                     16                     17                     18
                      A                      A                      A
 Frequencies --    745.0452               756.1537               825.1236
 Red. masses --      6.3865                 4.9956                 1.2753
 Frc consts  --      2.0887                 1.6829                 0.5116
 IR Inten    --      4.6042                12.0508                 0.3650

                     19                     20                     21
                      A                      A                      A
 Frequencies --    850.7147               870.0733              1008.5664
 Red. masses --      5.6325                 1.8751                 2.8970
 Frc consts  --      2.4017                 0.8364                 1.7363
 IR Inten    --     43.1629                73.4873                 1.3594

                     22                     23                     24
                      A                      A                      A
 Frequencies --   1013.8778              1020.0992              1053.4203
 Red. masses --      1.2956                 1.3230                 1.5252
 Frc consts  --      0.7847                 0.8111                 0.9972
 IR Inten    --      0.0621                 0.0658                17.9007

                     25                     26                     27
                      A                      A                      A
 Frequencies --   1087.6058              1185.0018              1206.0724
 Red. masses --      4.5893                 1.1757                 1.2306
 Frc consts  --      3.1985                 0.9727                 1.0547
 IR Inten    --    244.3177                36.0391               618.1815

                     28                     29                     30
                      A                      A                      A
 Frequencies --   1293.0001              1359.4844              1411.4483
 Red. masses --      1.6953                 1.3612                 2.0953
 Frc consts  --      1.6699                 1.4823                 2.4594
 IR Inten    --    510.3021                35.2954               123.9960

                     31                     32                     33
                      A                      A                      A
 Frequencies --   1434.3336              1449.0649              1565.6286
 Red. masses --      3.5180                 3.7241                 4.5272
 Frc consts  --      4.2643                 4.6073                 6.5381
 IR Inten    --      3.4355                96.3656               150.1626

                     34                     35                     36
                      A                      A                      A
 Frequencies --   1576.5442              1601.3306              1668.2410
 Red. masses --      2.6787                 5.6927                 4.7722
 Frc consts  --      3.9227                 8.6006                 7.8251
 IR Inten    --     26.0395                14.1963              1434.3132

                     37                     38                     39
                      A                      A                      A
 Frequencies --   1697.2281              1746.7556              3234.7741
 Red. masses --      1.4964                 5.1433                 1.0921
 Frc consts  --      2.5397                 9.2460                 6.7329
 IR Inten    --    341.6052                65.3371                 0.4290

                     40                     41                     42
                      A                      A                      A
 Frequencies --   3235.3111              3258.3276              3269.9381
 Red. masses --      1.0929                 1.0967                 1.0959
 Frc consts  --      6.7400                 6.8599                 6.9042
 IR Inten    --      0.1689                12.1156                 9.7441

                     43                     44                     45
                      A                      A                      A
 Frequencies --   3603.0613              3693.3132              3723.8636
 Red. masses --      1.0476                 1.0663                 1.1060
 Frc consts  --      8.0131                 8.5700                 9.0360
 IR Inten    --    416.1448               409.2370                91.9900

 - Thermochemistry -
 -------------------
 Temperature   298.150 Kelvin.  Pressure   1.00000 Atm.
 Atom     1 has atomic number  6 and mass  12.00000

 Molecular mass:   139.05075 amu.
 Principal axes and moments of inertia in atomic units:
                           1         2         3
     Eigenvalues --   476.697542182.632932659.33048
           X            0.99998   0.00608  -0.00000
           Y           -0.00608   0.99998  -0.00000
           Z            0.00000   0.00000   1.00000
 This molecule is an asymmetric top.
 Rotational symmetry number  1.
 Warning -- assumption of classical behavior for rotation
           may cause significant error
 Rotational temperatures (Kelvin)      0.18170     0.03968     0.03257
 Rotational constants (GHZ):           3.78593     0.82686     0.67864
 Zero-point vibrational energy     352196.8 (Joules/Mol)
                                   84.17706 (Kcal/Mol)
 Warning -- explicit consideration of  12 degrees of freedom as
           vibrations may cause significant error
 Vibrational temperatures:    138.81   154.65   321.73   372.69   536.84
          (Kelvin)            578.01   579.84   658.27   706.31   781.66
                              804.89   823.59   896.54   915.86   995.02
                             1071.95  1087.94  1187.17  1223.99  1251.84
                             1451.10  1458.74  1467.69  1515.63  1564.82
                             1704.95  1735.27  1860.34  1955.99  2030.76
                             2063.68  2084.88  2252.59  2268.29  2303.95
                             2400.22  2441.93  2513.19  4654.11  4654.89
                             4688.00  4704.71  5184.00  5313.85  5357.80

 Zero-point correction=                           0.134145 (Hartree/Particle)
 Thermal correction to Energy=                    0.142471
 Thermal correction to Enthalpy=                  0.143415
 Thermal correction to Gibbs Free Energy=         0.100978
 Sum of electronic and zero-point Energies=           -492.121651
 Sum of electronic and thermal Energies=              -492.113324
 Sum of electronic and thermal Enthalpies=            -492.112380
 Sum of electronic and thermal Free Energies=         -492.154818

                     E (Thermal)             CV                S
                      KCal/Mol        Cal/Mol-Kelvin    Cal/Mol-Kelvin
 Total                   89.402             32.775             89.317
 Electronic               0.000              0.000              0.000
 Translational            0.889              2.981             40.701
 Rotational               0.889              2.981             29.405
 Vibrational             87.625             26.813             19.212
 Vibration     1          0.603              1.952              3.524
 Vibration     2          0.606              1.943              3.314
 Vibration     3          0.649              1.805              1.930
 Vibration     4          0.668              1.747              1.668
 Vibration     5          0.745              1.527              1.067
 Vibration     6          0.767              1.466              0.956
 Vibration     7          0.768              1.464              0.952
 Vibration     8          0.816              1.344              0.773
 Vibration     9          0.847              1.270              0.681
 Vibration    10          0.898              1.154              0.558
 Vibration    11          0.915              1.119              0.525
 Vibration    12          0.929              1.091              0.500

 Optimization completed.
    -- Stationary point found.
 Normal termination of Gaussian 09 at Thu Jun 20 17:09:45 2024.
