 Gaussian 09, Revision E.01,
 Gaussian 09:  ES64L-G09RevE.01 30-Nov-2015

 ----------------------------
 # opt freq m062x/6-31+g(d,p)
 ----------------------------

 ----------
 [No Title]
 ----------
 Symbolic Z-matrix:
 Charge =  1 Multiplicity = 1

 SCF Done:  E(RM062X) =  -492.270353422     A.U. after   16 cycles
 SCF Done:  E(RM062X) =  -492.271139701     A.U. after   12 cycles
 SCF Done:  E(RM062X) =  -492.271185742     A.U. after   12 cycles
 SCF Done:  E(RM062X) =  -492.271190823     A.U. after   11 cycles
 SCF Done:  E(RM062X) =  -492.271191842     A.U. after   10 cycles
 SCF Done:  E(RM062X) =  -492.271191798     A.U. after   10 cycles
 Optimization completed.
    -- Stationary point found.
 Normal termination of Gaussian 09 at Thu Jun 13 22:39:41 2024.

 ----------------------------------------------------------------------
 #N Geom=AllCheck Guess=TCheck SCRF=Check GenChk RM062X/6-31+G(d,p) Fre
 q
 ----------------------------------------------------------------------

 Structure from the checkpoint file:  "m062xPNAyang.chk"
 ----------
 [No Title]
 ----------
 Charge =  1 Multiplicity = 1

                         Standard orientation:
 ---------------------------------------------------------------------
 Center     Atomic      Atomic             Coordinates (Angstroms)
 Number     Number       Type             X           Y           Z
 ---------------------------------------------------------------------
      1          6           0        0.056849    1.263083    0.000132
      2          6           0       -0.664677    0.036374    0.000345
      3          6           0        0.005357   -1.218884    0.000236
      4          6           0        1.367234   -1.240324    0.000051
      5          6           0        2.111936   -0.017721   -0.000090
      6          6           0        1.417516    1.234499   -0.000049
      7          7           0        3.440914   -0.044134   -0.000260
      8          7           0       -2.025461    0.105047    0.000544
      9          8           0       -2.658960   -1.084710   -0.000351
     10          8           0       -2.695392    1.106005   -0.000224
     11          1           0       -0.486292    2.202055    0.000178
     12          1           0       -0.561451   -2.142185    0.000346
     13          1           0        1.898276   -2.186287    0.000020
     14          1           0        1.985172    2.158932   -0.000150
     15          1           0        3.985484    0.807530   -0.000362
     16          1           0        3.952012   -0.916227   -0.000293
     17          1           0       -3.611842   -0.862729   -0.000887
 ---------------------------------------------------------------------

 SCF Done:  E(RM062X) =  -492.271191798     A.U. after    1 cycles

 The electronic state is 1-A.
 Alpha  occ. eigenvalues --  -19.91529 -19.88317 -15.20044 -14.97817 -10.80990
 Alpha  occ. eigenvalues --  -10.78683 -10.75585 -10.75389 -10.73661 -10.73638
 Alpha  occ. eigenvalues --   -1.55896  -1.38563  -1.24156  -1.18385  -1.09939
 Alpha  occ. eigenvalues --   -1.04299  -0.97760  -0.91231  -0.88550  -0.83581
 Alpha  occ. eigenvalues --   -0.82449  -0.81100  -0.79294  -0.78123  -0.72870
 Alpha  occ. eigenvalues --   -0.68893  -0.68586  -0.67675  -0.65387  -0.65359
 Alpha  occ. eigenvalues --   -0.61405  -0.58969  -0.57762  -0.57431  -0.50211
 Alpha  occ. eigenvalues --   -0.44799
 Alpha virt. eigenvalues --   -0.25502  -0.15047  -0.11966  -0.11822  -0.10795
 Alpha virt. eigenvalues --   -0.09298  -0.08168  -0.07474  -0.06374  -0.06052
 Alpha virt. eigenvalues --   -0.04400  -0.03722  -0.03003  -0.02901  -0.01713

 Mulliken charges:
               1
     1  C   -0.053545
     2  C   -0.473891
     3  C    0.155397
     4  C    0.015051
     5  C    0.199095
     6  C    0.048505
     7  N   -0.596362
     8  N   -0.278045
     9  O   -0.058148
    10  O    0.030729
    11  H    0.231410
    12  H    0.230101
    13  H    0.197513
    14  H    0.199535
    15  H    0.367580
    16  H    0.367341
    17  H    0.417735
 Sum of Mulliken charges =   1.00000

 Dipole moment (field-independent basis, Debye):
    X=              3.2968    Y=             -1.1138    Z=             -0.0006  Tot=              3.4799
 Quadrupole moment (field-independent basis, Debye-Ang):
   XX=             -7.8527   YY=            -44.4794   ZZ=            -59.0026
   XY=              4.7686   XZ=              0.0003   YZ=              0.0007

  Exact polarizability: 195.098  -6.812  86.002  -0.003  -0.001  44.131
 Approx polarizability: 271.618 -19.541 115.409  -0.009  -0.003  57.503

                      1                      2                      3
                      A                      A                      A
 Frequencies --     95.9015               109.8430               229.3362
 Red. masses --      4.8721                 7.2893                 5.6918
 Frc consts  --      0.0264                 0.0518                 0.1764
 IR Inten    --      3.8937                 0.0657                 1.1846

                      4                      5                      6
                      A                      A                      A
 Frequencies --    254.8990               372.4517               394.1950
 Red. masses --      4.5039                 8.2237                 2.1635
 Frc consts  --      0.1724                 0.6721                 0.1981
 IR Inten    --      0.0000                 2.7582                28.5907

                      7                      8                      9
                      A                      A                      A
 Frequencies --    402.4657               437.9022               479.3357
 Red. masses --      3.0429                 1.2767                 2.1695
 Frc consts  --      0.2904                 0.1442                 0.2937
 IR Inten    --      0.2419               152.5467                 6.3671

                     10                     11                     12
                      A                      A                      A
 Frequencies --    545.1387               550.9743               561.5257
 Red. masses --      6.0312                 1.3005                 1.0663
 Frc consts  --      1.0560                 0.2326                 0.1981
 IR Inten    --      9.6650               196.7681                 2.4095

                     13                     14                     15
                      A                      A                      A
 Frequencies --    627.5864               630.4824               690.2880
 Red. masses --      6.7989                 6.0440                 3.9233
 Frc consts  --      1.5777                 1.4155                 1.1014
 IR Inten    --      5.9194                43.9111                10.5923

                     16                     17                     18
                      A                      A                      A
 Frequencies --    737.6027               764.1747               822.8223
 Red. masses --      9.1473                 4.8712                 1.2811
 Frc consts  --      2.9322                 1.6760                 0.5110
 IR Inten    --      9.4838                 5.5410                 1.3385

                     19                     20                     21
                      A                      A                      A
 Frequencies --    849.2859               861.1962              1000.6284
 Red. masses --      5.7265                 1.8170                 2.8914
 Frc consts  --      2.4336                 0.7940                 1.7057
 IR Inten    --     44.3342                72.8429                 2.3955

                     22                     23                     24
                      A                      A                      A
 Frequencies --   1005.1501              1013.1842              1048.4397
 Red. masses --      1.2693                 1.3215                 1.4489
 Frc consts  --      0.7556                 0.7992                 0.9383
 IR Inten    --      0.3309                 0.0062                 3.2302

                     25                     26                     27
                      A                      A                      A
 Frequencies --   1108.1292              1179.4884              1198.8418
 Red. masses --      4.9129                 1.1715                 1.2451
 Frc consts  --      3.5544                 0.9602                 1.0543
 IR Inten    --    200.3315                20.0298               705.5794

                     28                     29                     30
                      A                      A                      A
 Frequencies --   1287.0631              1348.1368              1413.0869
 Red. masses --      1.7068                 1.3348                 1.9805
 Frc consts  --      1.6658                 1.4293                 2.3300
 IR Inten    --    603.9056                38.4094               145.3986

                     31                     32                     33
                      A                      A                      A
 Frequencies --   1430.6866              1465.1204              1565.1451
 Red. masses --      4.0058                 3.2048                 4.5894
 Frc consts  --      4.8309                 4.0532                 6.6239
 IR Inten    --      3.8771                78.8796               147.3178

                     34                     35                     36
                      A                      A                      A
 Frequencies --   1573.8135              1599.7984              1670.1711
 Red. masses --      2.5685                 5.9218                 5.0183
 Frc consts  --      3.7484                 8.9296                 8.2477
 IR Inten    --     10.4872                16.7858              1266.0251

                     37                     38                     39
                      A                      A                      A
 Frequencies --   1694.7964              1758.6889              3222.5581
 Red. masses --      1.5843                 5.5888                 1.0931
 Frc consts  --      2.6811                10.1846                 6.6885
 IR Inten    --    553.0902                93.1621                 0.9773

                     40                     41                     42
                      A                      A                      A
 Frequencies --   3230.9261              3245.9384              3261.7346
 Red. masses --      1.0910                 1.0981                 1.0961
 Frc consts  --      6.7104                 6.8166                 6.8704
 IR Inten    --      0.8120                13.4198                11.0549

                     43                     44                     45
                      A                      A                      A
 Frequencies --   3601.9315              3720.2936              3727.5777
 Red. masses --      1.0477                 1.0665                 1.1061
 Frc consts  --      8.0085                 8.6971                 9.0550
 IR Inten    --    446.9230               438.1236               100.8083

 - Thermochemistry -
 -------------------
 Temperature   298.150 Kelvin.  Pressure   1.00000 Atm.
 Atom     1 has atomic number  6 and mass  12.00000

 Molecular mass:   139.05075 amu.
 Principal axes and moments of inertia in atomic units:
                           1         2         3
     Eigenvalues --   476.965882180.687342657.65315
           X            0.99998   0.00610   0.00001
           Y           -0.00610   0.99998  -0.00000
           Z           -0.00001   0.00000   1.00000
 This molecule is an asymmetric top.
 Rotational symmetry number  1.
 Warning -- assumption of classical behavior for rotation
           may cause significant error
 Rotational temperatures (Kelvin)      0.18159     0.03972     0.03259
 Rotational constants (GHZ):           3.78380     0.82760     0.67907
 Zero-point vibrational energy     351634.7 (Joules/Mol)
                                   84.04272 (Kcal/Mol)
 Warning -- explicit consideration of  12 degrees of freedom as
           vibrations may cause significant error
 Vibrational temperatures:    137.98   158.04   329.96   366.74   535.87
          (Kelvin)            567.16   579.06   630.04   689.66   784.33
                              792.73   807.91   902.96   907.12   993.17
                             1061.24  1099.48  1183.86  1221.93  1239.07
                             1439.68  1446.19  1457.74  1508.47  1594.35
                             1697.02  1724.86  1851.79  1939.67  2033.11
                             2058.44  2107.98  2251.89  2264.36  2301.75
                             2403.00  2438.43  2530.36  4636.54  4648.58
                             4670.18  4692.90  5182.37  5352.67  5363.15

 Zero-point correction=                           0.133931 (Hartree/Particle)
 Thermal correction to Energy=                    0.142303
 Thermal correction to Enthalpy=                  0.143247
 Thermal correction to Gibbs Free Energy=         0.100749
 Sum of electronic and zero-point Energies=           -492.137261
 Sum of electronic and thermal Energies=              -492.128889
 Sum of electronic and thermal Enthalpies=            -492.127944
 Sum of electronic and thermal Free Energies=         -492.170443

                     E (Thermal)             CV                S
                      KCal/Mol        Cal/Mol-Kelvin    Cal/Mol-Kelvin
 Total                   89.297             32.945             89.446
 Electronic               0.000              0.000              0.000
 Translational            0.889              2.981             40.701
 Rotational               0.889              2.981             29.404
 Vibrational             87.519             26.984             19.342
 Vibration     1          0.603              1.952              3.536
 Vibration     2          0.606              1.941              3.272
 Vibration     3          0.652              1.796              1.884
 Vibration     4          0.665              1.755              1.696
 Vibration     5          0.744              1.529              1.070
 Vibration     6          0.761              1.483              0.984
 Vibration     7          0.768              1.465              0.954
 Vibration     8          0.798              1.388              0.833
 Vibration     9          0.836              1.296              0.712
 Vibration    10          0.900              1.150              0.554
 Vibration    11          0.906              1.138              0.542
 Vibration    12          0.917              1.115              0.521

 Optimization completed.
    -- Stationary point found.
 Normal termination of Gaussian 09 at Thu Jun 13 22:41:20 2024.
