 Gaussian 09, Revision E.01,
 Gaussian 09:  ES64L-G09RevE.01 30-Nov-2015

 ----------------------------
 # opt freq m062x/6-31+g(d,p)
 ----------------------------

 ----------
 [No Title]
 ----------
 Symbolic Z-matrix:
 Charge =  0 Multiplicity = 1

 SCF Done:  E(RM062X) =  -491.929953834     A.U. after   14 cycles
 SCF Done:  E(RM062X) =  -491.930637995     A.U. after   13 cycles
 SCF Done:  E(RM062X) =  -491.927662252     A.U. after   14 cycles
 SCF Done:  E(RM062X) =  -491.930677781     A.U. after   10 cycles
 SCF Done:  E(RM062X) =  -491.930710687     A.U. after   11 cycles
 SCF Done:  E(RM062X) =  -491.930713075     A.U. after   10 cycles
 Optimization completed.
    -- Stationary point found.
 Normal termination of Gaussian 09 at Thu Jun 13 22:04:00 2024.

 ----------------------------------------------------------------------
 #N Geom=AllCheck Guess=TCheck SCRF=Check GenChk RM062X/6-31+G(d,p) Fre
 q
 ----------------------------------------------------------------------

 Structure from the checkpoint file:  "m062xPNA.chk"
 ----------
 [No Title]
 ----------
 Charge =  0 Multiplicity = 1

                         Standard orientation:
 ---------------------------------------------------------------------
 Center     Atomic      Atomic             Coordinates (Angstroms)
 Number     Number       Type             X           Y           Z
 ---------------------------------------------------------------------
      1          6           0        0.024046   -1.214350    0.000026
      2          6           0        0.705678    0.000001    0.000071
      3          6           0        0.024045    1.214351    0.000096
      4          6           0       -1.359195    1.213566    0.000078
      5          6           0       -2.074997   -0.000000    0.000033
      6          6           0       -1.359195   -1.213566    0.000007
      7          7           0       -3.441553   -0.000000    0.000018
      8          7           0        2.163125    0.000000    0.000085
      9          8           0        2.733574    1.080023   -0.000138
     10          8           0        2.733571   -1.080024   -0.000210
     11          1           0        0.585774   -2.140946    0.000004
     12          1           0        0.585772    2.140947    0.000127
     13          1           0       -1.900953    2.154550    0.000097
     14          1           0       -1.900952   -2.154550   -0.000028
     15          1           0       -3.960050   -0.861281   -0.000028
     16          1           0       -3.960050    0.861279    0.000026
 ---------------------------------------------------------------------

 SCF Done:  E(RM062X) =  -491.930713075     A.U. after    1 cycles

 The electronic state is 1-A.
 Alpha  occ. eigenvalues --  -19.67334 -19.67330 -15.00719 -14.80441 -10.63256
 Alpha  occ. eigenvalues --  -10.60580 -10.58491 -10.58489 -10.57562 -10.57562
 Alpha  occ. eigenvalues --   -1.36020  -1.17329  -1.06596  -0.98700  -0.89442
 Alpha  occ. eigenvalues --   -0.87447  -0.78682  -0.73173  -0.68748  -0.64864
 Alpha  occ. eigenvalues --   -0.62853  -0.61919  -0.61740  -0.59039  -0.53850
 Alpha  occ. eigenvalues --   -0.52637  -0.51591  -0.48894  -0.48777  -0.43023
 Alpha  occ. eigenvalues --   -0.40983  -0.38337  -0.37163  -0.37098  -0.33506
 Alpha  occ. eigenvalues --   -0.28315
 Alpha virt. eigenvalues --   -0.04411  -0.00286  -0.00127   0.01729   0.02444
 Alpha virt. eigenvalues --    0.04271   0.04364   0.04742   0.07124   0.07136
 Alpha virt. eigenvalues --    0.08469   0.09108   0.09633   0.10240   0.11865

 Mulliken charges:
               1
     1  C   -0.106675
     2  C   -0.251256
     3  C   -0.106673
     4  C   -0.006854
     5  C    0.181078
     6  C   -0.006855
     7  N   -0.693404
     8  N   -0.205744
     9  O   -0.081591
    10  O   -0.081591
    11  H    0.200347
    12  H    0.200347
    13  H    0.149610
    14  H    0.149610
    15  H    0.329825
    16  H    0.329825
 Sum of Mulliken charges =   0.00000

 Dipole moment (field-independent basis, Debye):
    X=             -7.5197    Y=              0.0000    Z=              0.0005  Tot=              7.5197
 Quadrupole moment (field-independent basis, Debye-Ang):
   XX=            -56.5565   YY=            -52.6545   ZZ=            -61.0459
   XY=              0.0000   XZ=              0.0021   YZ=              0.0002

  Exact polarizability: 143.429   0.000  97.630  -0.002   0.001  49.090
 Approx polarizability: 167.695   0.000 139.593  -0.002   0.002  63.060

 ******    1 imaginary frequencies (negative Signs) ******

                      1                      2                      3
                      A                      A                      A
 Frequencies --   -283.1037                68.9720               110.7545
 Red. masses --      1.2307                 7.7498                 5.9025
 Frc consts  --      0.0581                 0.0217                 0.0427
 IR Inten    --    243.1078                 0.0000                 0.0127

                      4                      5                      6
                      A                      A                      A
 Frequencies --    231.5582               289.8094               370.0957
 Red. masses --      6.4186                 5.6079                 9.4382
 Frc consts  --      0.2028                 0.2775                 0.7617
 IR Inten    --      0.2481                 3.0531                 0.1138

                      7                      8                      9
                      A                      A                      A
 Frequencies --    394.2622               396.6619               426.6392
 Red. masses --      3.0600                 1.0130                 3.0723
 Frc consts  --      0.2803                 0.0939                 0.3295
 IR Inten    --      0.9488                 0.0000                 0.0000

                     10                     11                     12
                      A                      A                      A
 Frequencies --    496.9562               545.1832               644.0801
 Red. masses --      2.7041                 7.0022                 6.8119
 Frc consts  --      0.3935                 1.2262                 1.6649
 IR Inten    --     20.5981                 3.1067                 0.9656

                     13                     14                     15
                      A                      A                      A
 Frequencies --    650.4954               691.7265               762.3191
 Red. masses --      6.8883                 3.2123                 7.9324
 Frc consts  --      1.7173                 0.9056                 2.7160
 IR Inten    --     18.4538                 9.3640                27.5078

                     16                     17                     18
                      A                      A                      A
 Frequencies --    832.7574               838.9854               856.7369
 Red. masses --      1.2589                 5.8224                 1.9142
 Frc consts  --      0.5144                 2.4147                 0.8278
 IR Inten    --      0.0000                 1.3715                46.4567

                     19                     20                     21
                      A                      A                      A
 Frequencies --    897.5101               988.0245              1000.0361
 Red. masses --      8.8028                 1.2866                 1.3332
 Frc consts  --      4.1778                 0.7400                 0.7855
 IR Inten    --     34.5230                 1.9419                 0.0000

                     22                     23                     24
                      A                      A                      A
 Frequencies --   1024.9949              1043.6506              1147.9641
 Red. masses --      2.7379                 1.3801                 1.1547
 Frc consts  --      1.6947                 0.8857                 0.8965
 IR Inten    --      4.4029                 0.0070                15.5223

                     25                     26                     27
                      A                      A                      A
 Frequencies --   1155.8675              1215.1867              1330.2529
 Red. masses --      1.9189                 1.4996                 1.2971
 Frc consts  --      1.5105                 1.3047                 1.3524
 IR Inten    --    147.3675                 6.0468                 0.1970

                     28                     29                     30
                      A                      A                      A
 Frequencies --   1359.3243              1393.1471              1465.1999
 Red. masses --      3.0085                 8.2979                12.3322
 Frc consts  --      3.2752                 9.4888                15.5986
 IR Inten    --    163.1657                 0.2292               638.8638

                     31                     32                     33
                      A                      A                      A
 Frequencies --   1502.7699              1560.8605              1656.9744
 Red. masses --      3.7195                 2.7202                 1.3072
 Frc consts  --      4.9490                 3.9047                 2.1147
 IR Inten    --      0.6444                47.6472                90.3477

                     34                     35                     36
                      A                      A                      A
 Frequencies --   1658.5306              1694.8914              1722.9460
 Red. masses --      8.8133                 5.4657                11.5678
 Frc consts  --     14.2836                 9.2508                20.2323
 IR Inten    --     58.9279               363.5002               297.5768

                     37                     38                     39
                      A                      A                      A
 Frequencies --   3203.9636              3204.3802              3251.5376
 Red. masses --      1.0915                 1.0910                 1.0940
 Frc consts  --      6.6016                 6.6003                 6.8144
 IR Inten    --      6.0508                 9.6257                 1.7843

                     40                     41                     42
                      A                      A                      A
 Frequencies --   3251.6688              3669.5446              3801.3995
 Red. masses --      1.0944                 1.0457                 1.1056
 Frc consts  --      6.8180                 8.2959                 9.4129
 IR Inten    --      4.3628               133.0378                53.8725

 - Thermochemistry -
 -------------------
 Temperature   298.150 Kelvin.  Pressure   1.00000 Atm.
 Atom     1 has atomic number  6 and mass  12.00000

 Molecular mass:   138.04293 amu.
 Principal axes and moments of inertia in atomic units:
                           1         2         3
     Eigenvalues --   457.607032182.672442640.27946
           X            1.00000   0.00000   0.00002
           Y            0.00000   1.00000  -0.00003
           Z           -0.00002   0.00003   1.00000
 This molecule is an asymmetric top.
 Rotational symmetry number  1.
 Warning -- assumption of classical behavior for rotation
           may cause significant error
 Rotational temperatures (Kelvin)      0.18928     0.03968     0.03280
 Rotational constants (GHZ):           3.94387     0.82685     0.68354
    1 imaginary frequencies ignored.
 Zero-point vibrational energy     315865.7 (Joules/Mol)
                                   75.49371 (Kcal/Mol)
 Warning -- explicit consideration of  10 degrees of freedom as
           vibrations may cause significant error
 Vibrational temperatures:     99.24   159.35   333.16   416.97   532.48
          (Kelvin)            567.25   570.71   613.84   715.01   784.40
                              926.69   935.92   995.24  1096.81  1198.15
                             1207.11  1232.65  1291.32  1421.55  1438.83
                             1474.74  1501.58  1651.66  1663.03  1748.38
                             1913.93  1955.76  2004.43  2108.09  2162.15
                             2245.73  2384.01  2386.25  2438.57  2478.93
                             4609.78  4610.38  4678.23  4678.42  5279.65
                             5469.36

 Zero-point correction=                           0.120307 (Hartree/Particle)
 Thermal correction to Energy=                    0.128245
 Thermal correction to Enthalpy=                  0.129189
 Thermal correction to Gibbs Free Energy=         0.087125
 Sum of electronic and zero-point Energies=           -491.810406
 Sum of electronic and thermal Energies=              -491.802468
 Sum of electronic and thermal Enthalpies=            -491.801524
 Sum of electronic and thermal Free Energies=         -491.843588

                     E (Thermal)             CV                S
                      KCal/Mol        Cal/Mol-Kelvin    Cal/Mol-Kelvin
 Total                   80.475             30.210             88.532
 Electronic               0.000              0.000              0.000
 Translational            0.889              2.981             40.679
 Rotational               0.889              2.981             29.357
 Vibrational             78.698             24.248             18.496
 Vibration     1          0.598              1.969              4.182
 Vibration     2          0.607              1.941              3.256
 Vibration     3          0.653              1.793              1.867
 Vibration     4          0.686              1.693              1.475
 Vibration     5          0.742              1.534              1.079
 Vibration     6          0.761              1.482              0.984
 Vibration     7          0.763              1.477              0.975
 Vibration     8          0.788              1.412              0.870
 Vibration     9          0.852              1.257              0.666
 Vibration    10          0.900              1.150              0.554

 Optimization completed.
    -- Stationary point found.
 Normal termination of Gaussian 09 at Thu Jun 13 22:05:28 2024.
