 Gaussian 09, Revision E.01,
 Gaussian 09:  ES64L-G09RevE.01 30-Nov-2015

 -----------------------------
 # opt freq pbepbe/6-31+g(d,p)
 -----------------------------

 ----------
 [No Title]
 ----------
 Symbolic Z-matrix:
 Charge =  1 Multiplicity = 1

 SCF Done:  E(RPBE-PBE) =  -491.947111272     A.U. after   18 cycles
 SCF Done:  E(RPBE-PBE) =  -491.948185993     A.U. after   13 cycles
 SCF Done:  E(RPBE-PBE) =  -491.948216633     A.U. after   11 cycles
 SCF Done:  E(RPBE-PBE) =  -491.948222566     A.U. after   11 cycles
 SCF Done:  E(RPBE-PBE) =  -491.948223273     A.U. after   10 cycles
 Optimization completed.
    -- Stationary point found.
 Normal termination of Gaussian 09 at Thu Jun 13 22:30:14 2024.

 ----------------------------------------------------------------------
 #N Geom=AllCheck Guess=TCheck SCRF=Check GenChk RPBEPBE/6-31+G(d,p) Fr
 eq
 ----------------------------------------------------------------------

 Structure from the checkpoint file:  "pbePNAyang.chk"
 ----------
 [No Title]
 ----------
 Charge =  1 Multiplicity = 1

                         Standard orientation:
 ---------------------------------------------------------------------
 Center     Atomic      Atomic             Coordinates (Angstroms)
 Number     Number       Type             X           Y           Z
 ---------------------------------------------------------------------
      1          6           0        0.059703    1.268151   -0.000055
      2          6           0       -0.667845    0.039071   -0.000151
      3          6           0        0.005448   -1.219975   -0.000100
      4          6           0        1.380926   -1.242717   -0.000029
      5          6           0        2.131751   -0.018710    0.000026
      6          6           0        1.433690    1.236716    0.000014
      7          7           0        3.475751   -0.046782    0.000089
      8          7           0       -2.045314    0.114996   -0.000225
      9          8           0       -2.687582   -1.119184    0.000172
     10          8           0       -2.726095    1.131882    0.000109
     11          1           0       -0.483412    2.215972   -0.000071
     12          1           0       -0.563570   -2.150926   -0.000143
     13          1           0        1.909398   -2.200158   -0.000020
     14          1           0        2.001222    2.171586    0.000050
     15          1           0        4.026349    0.810075    0.000130
     16          1           0        3.990711   -0.925480    0.000099
     17          1           0       -3.646381   -0.875366    0.000426
 ---------------------------------------------------------------------

 SCF Done:  E(RPBE-PBE) =  -491.948223273     A.U. after    1 cycles

 The electronic state is 1-A.
 Alpha  occ. eigenvalues --  -19.03691 -19.00639 -14.40728 -14.22893 -10.15502
 Alpha  occ. eigenvalues --  -10.14275 -10.10459 -10.10324 -10.09410 -10.09408
 Alpha  occ. eigenvalues --   -1.30696  -1.15817  -1.04873  -0.99267  -0.92206
 Alpha  occ. eigenvalues --   -0.87066  -0.81883  -0.76050  -0.73736  -0.69464
 Alpha  occ. eigenvalues --   -0.67385  -0.66177  -0.65181  -0.65063  -0.58917
 Alpha  occ. eigenvalues --   -0.57403  -0.56445  -0.55655  -0.54152  -0.53729
 Alpha  occ. eigenvalues --   -0.48638  -0.47924  -0.47342  -0.44488  -0.41722
 Alpha  occ. eigenvalues --   -0.38185
 Alpha virt. eigenvalues --   -0.30964  -0.22014  -0.19564  -0.16383  -0.15063
 Alpha virt. eigenvalues --   -0.12575  -0.12185  -0.11809  -0.10255  -0.08980
 Alpha virt. eigenvalues --   -0.08760  -0.07659  -0.07170  -0.06091  -0.04940

 Mulliken charges:
               1
     1  C   -0.044577
     2  C   -0.504680
     3  C    0.231857
     4  C    0.017970
     5  C    0.193949
     6  C    0.048018
     7  N   -0.526607
     8  N   -0.372426
     9  O    0.006390
    10  O    0.090088
    11  H    0.207085
    12  H    0.207874
    13  H    0.179959
    14  H    0.181633
    15  H    0.349906
    16  H    0.349710
    17  H    0.383851
 Sum of Mulliken charges =   1.00000

 Dipole moment (field-independent basis, Debye):
    X=              3.8490    Y=             -1.0163    Z=              0.0003  Tot=              3.9809
 Quadrupole moment (field-independent basis, Debye-Ang):
   XX=             -7.0478   YY=            -44.4304   ZZ=            -58.7432
   XY=              4.4147   XZ=             -0.0007   YZ=             -0.0004

  Exact polarizability: 198.411  -3.768  92.086   0.000   0.000  45.739
 Approx polarizability: 755.044 -58.586 198.781   0.008   0.002  73.998

                      1                      2                      3
                      A                      A                      A
 Frequencies --     92.9051                97.4626               212.3014
 Red. masses --      5.1397                 6.7090                 5.7372
 Frc consts  --      0.0261                 0.0375                 0.1524
 IR Inten    --      2.4642                 0.9456                 1.1778

                      4                      5                      6
                      A                      A                      A
 Frequencies --    255.1520               357.4386               382.8063
 Red. masses --      4.6237                 8.1865                 3.0665
 Frc consts  --      0.1774                 0.6162                 0.2648
 IR Inten    --      0.1541                 0.7104                 0.3233

                      7                      8                      9
                      A                      A                      A
 Frequencies --    382.8538               440.2450               473.0569
 Red. masses --      2.3267                 1.3086                 1.7870
 Frc consts  --      0.2009                 0.1494                 0.2356
 IR Inten    --     15.4539               154.5685                 3.5198

                     10                     11                     12
                      A                      A                      A
 Frequencies --    504.1601               512.6730               538.3750
 Red. masses --      1.3709                 5.9775                 1.0682
 Frc consts  --      0.2053                 0.9257                 0.1824
 IR Inten    --    176.0529                13.6585                 0.0857

                     13                     14                     15
                      A                      A                      A
 Frequencies --    583.7881               611.0168               635.9540
 Red. masses --      5.8830                 6.8387                 6.1011
 Frc consts  --      1.1813                 1.5043                 1.4538
 IR Inten    --     15.3519                 4.9680                13.8170

                     16                     17                     18
                      A                      A                      A
 Frequencies --    702.5367               707.1097               781.3670
 Red. masses --      4.9583                 5.5101                 1.2783
 Frc consts  --      1.4418                 1.6232                 0.4598
 IR Inten    --      0.0769                13.9457                 0.3112

                     19                     20                     21
                      A                      A                      A
 Frequencies --    821.9040               823.3062               948.1895
 Red. masses --      5.5768                 1.8293                 1.2973
 Frc consts  --      2.2196                 0.7306                 0.6872
 IR Inten    --     19.3907                62.9407                 0.0865

                     22                     23                     24
                      A                      A                      A
 Frequencies --    953.3636               967.8044               987.9081
 Red. masses --      1.2913                 4.0392                 3.3165
 Frc consts  --      0.6915                 2.2291                 1.9070
 IR Inten    --      0.2437                49.0756               187.6279

                     25                     26                     27
                      A                      A                      A
 Frequencies --   1018.4794              1137.9032              1166.1442
 Red. masses --      1.4983                 1.1781                 1.2242
 Frc consts  --      0.9157                 0.8987                 0.9809
 IR Inten    --     18.7676                20.7597               247.0213

                     28                     29                     30
                      A                      A                      A
 Frequencies --   1235.5041              1302.0020              1340.0470
 Red. masses --      1.7984                 1.3428                 2.1280
 Frc consts  --      1.6174                 1.3411                 2.2515
 IR Inten    --    228.3408                13.0687                56.1729

                     31                     32                     33
                      A                      A                      A
 Frequencies --   1372.7654              1394.6623              1503.6260
 Red. masses --      2.4640                 4.3941                 5.3394
 Frc consts  --      2.7358                 5.0357                 7.1125
 IR Inten    --     33.9063                19.9737                48.2686

                     34                     35                     36
                      A                      A                      A
 Frequencies --   1508.2738              1524.3171              1611.6757
 Red. masses --      2.8012                 6.0262                 4.5354
 Frc consts  --      3.7545                 8.2498                 6.9409
 IR Inten    --     28.3599                 6.8446               527.0114

                     37                     38                     39
                      A                      A                      A
 Frequencies --   1632.2040              1661.3780              3143.2210
 Red. masses --      1.5674                 4.1652                 1.0916
 Frc consts  --      2.4602                 6.7737                 6.3540
 IR Inten    --    420.5908                55.7306                 0.2795

                     40                     41                     42
                      A                      A                      A
 Frequencies --   3143.8447              3168.7439              3181.4730
 Red. masses --      1.0911                 1.0951                 1.0945
 Frc consts  --      6.3540                 6.4788                 6.5271
 IR Inten    --      0.0467                 9.1126                 8.0088

                     43                     44                     45
                      A                      A                      A
 Frequencies --   3502.9905              3552.5217              3624.1377
 Red. masses --      1.0474                 1.0663                 1.1053
 Frc consts  --      7.5727                 7.9285                 8.5530
 IR Inten    --    355.1011               315.9563                78.6477

 - Thermochemistry -
 -------------------
 Temperature   298.150 Kelvin.  Pressure   1.00000 Atm.
 Atom     1 has atomic number  6 and mass  12.00000

 Molecular mass:   139.05075 amu.
 Principal axes and moments of inertia in atomic units:
                           1         2         3
     Eigenvalues --   486.823832225.957232712.78104
           X            0.99998   0.00611   0.00000
           Y           -0.00611   0.99998   0.00000
           Z           -0.00000  -0.00000   1.00000
 This molecule is an asymmetric top.
 Rotational symmetry number  1.
 Warning -- assumption of classical behavior for rotation
           may cause significant error
 Rotational temperatures (Kelvin)      0.17792     0.03891     0.03193
 Rotational constants (GHZ):           3.70718     0.81077     0.66527
 Zero-point vibrational energy     337942.6 (Joules/Mol)
                                   80.77022 (Kcal/Mol)
 Warning -- explicit consideration of  14 degrees of freedom as
           vibrations may cause significant error
 Vibrational temperatures:    133.67   140.23   305.45   367.11   514.27
          (Kelvin)            550.77   550.84   633.41   680.62   725.37
                              737.62   774.60   839.94   879.12   914.99
                             1010.79  1017.37  1124.21  1182.54  1184.55
                             1364.23  1371.68  1392.45  1421.38  1465.36
                             1637.19  1677.82  1777.61  1873.29  1928.03
                             1975.10  2006.61  2163.38  2170.07  2193.15
                             2318.84  2348.37  2390.35  4522.39  4523.29
                             4559.11  4577.42  5040.02  5111.28  5214.32

 Zero-point correction=                           0.128716 (Hartree/Particle)
 Thermal correction to Energy=                    0.137445
 Thermal correction to Enthalpy=                  0.138389
 Thermal correction to Gibbs Free Energy=         0.095210
 Sum of electronic and zero-point Energies=           -491.819508
 Sum of electronic and thermal Energies=              -491.810778
 Sum of electronic and thermal Enthalpies=            -491.809834
 Sum of electronic and thermal Free Energies=         -491.853013

                     E (Thermal)             CV                S
                      KCal/Mol        Cal/Mol-Kelvin    Cal/Mol-Kelvin
 Total                   86.248             34.465             90.877
 Electronic               0.000              0.000              0.000
 Translational            0.889              2.981             40.701
 Rotational               0.889              2.981             29.465
 Vibrational             84.471             28.503             20.712
 Vibration     1          0.602              1.954              3.598
 Vibration     2          0.603              1.951              3.504
 Vibration     3          0.643              1.822              2.024
 Vibration     4          0.666              1.754              1.695
 Vibration     5          0.733              1.560              1.133
 Vibration     6          0.752              1.507              1.028
 Vibration     7          0.752              1.507              1.028
 Vibration     8          0.800              1.382              0.826
 Vibration     9          0.830              1.310              0.729
 Vibration    10          0.859              1.241              0.648
 Vibration    11          0.868              1.222              0.627
 Vibration    12          0.893              1.165              0.569
 Vibration    13          0.941              1.066              0.478
 Vibration    14          0.970              1.009              0.431

 Optimization completed.
    -- Stationary point found.
 Normal termination of Gaussian 09 at Thu Jun 13 22:31:21 2024.
