 Gaussian 09, Revision E.01,
 Gaussian 09:  ES64L-G09RevE.01 30-Nov-2015

 -----------------------------
 # opt freq pbepbe/6-31+g(d,p)
 -----------------------------

 ----------
 [No Title]
 ----------
 Symbolic Z-matrix:
 Charge =  0 Multiplicity = 1

 SCF Done:  E(RPBE-PBE) =  -491.598581950     A.U. after   16 cycles
 SCF Done:  E(RPBE-PBE) =  -491.599517304     A.U. after   13 cycles
 SCF Done:  E(RPBE-PBE) =  -491.597664553     A.U. after   13 cycles
 SCF Done:  E(RPBE-PBE) =  -491.599543451     A.U. after   10 cycles
 SCF Done:  E(RPBE-PBE) =  -491.599555984     A.U. after   11 cycles
 SCF Done:  E(RPBE-PBE) =  -491.599557087     A.U. after   10 cycles
 Optimization completed.
    -- Stationary point found.
 Normal termination of Gaussian 09 at Thu Jun 13 21:54:32 2024.

 ----------------------------------------------------------------------
 #N Geom=AllCheck Guess=TCheck SCRF=Check GenChk RPBEPBE/6-31+G(d,p) Fr
 eq
 ----------------------------------------------------------------------

 Structure from the checkpoint file:  "pbePNA.chk"
 ----------
 [No Title]
 ----------
 Charge =  0 Multiplicity = 1

                         Standard orientation:
 ---------------------------------------------------------------------
 Center     Atomic      Atomic             Coordinates (Angstroms)
 Number     Number       Type             X           Y           Z
 ---------------------------------------------------------------------
      1          6           0        0.021033   -1.222118    0.000004
      2          6           0        0.715001    0.000000    0.000045
      3          6           0        0.021033    1.222118    0.000075
      4          6           0       -1.370515    1.222247    0.000069
      5          6           0       -2.094420    0.000000    0.000030
      6          6           0       -1.370515   -1.222247   -0.000002
      7          7           0       -3.466850   -0.000000    0.000027
      8          7           0        2.174791    0.000000    0.000053
      9          8           0        2.759335    1.102626   -0.000096
     10          8           0        2.759335   -1.102627   -0.000163
     11          1           0        0.587769   -2.155506   -0.000021
     12          1           0        0.587769    2.155507    0.000105
     13          1           0       -1.914010    2.172637    0.000095
     14          1           0       -1.914010   -2.172637   -0.000032
     15          1           0       -3.991085   -0.867185   -0.000013
     16          1           0       -3.991085    0.867184    0.000039
 ---------------------------------------------------------------------

 SCF Done:  E(RPBE-PBE) =  -491.599557087     A.U. after    1 cycles

 The electronic state is 1-A.
 Alpha  occ. eigenvalues --  -18.79768 -18.79768 -14.21869 -14.06002  -9.98388
 Alpha  occ. eigenvalues --   -9.95738  -9.93541  -9.93541  -9.93169  -9.93169
 Alpha  occ. eigenvalues --   -1.11079  -0.94857  -0.87952  -0.80078  -0.72175
 Alpha  occ. eigenvalues --   -0.70358  -0.63058  -0.58464  -0.54455  -0.50675
 Alpha  occ. eigenvalues --   -0.50275  -0.48144  -0.46510  -0.44538  -0.41637
 Alpha  occ. eigenvalues --   -0.40885  -0.39849  -0.37625  -0.37251  -0.32544
 Alpha  occ. eigenvalues --   -0.30553  -0.26503  -0.25190  -0.25168  -0.22989
 Alpha  occ. eigenvalues --   -0.20965
 Alpha virt. eigenvalues --   -0.11203  -0.06322  -0.03477  -0.02823  -0.00561
 Alpha virt. eigenvalues --   -0.00284   0.02419   0.03005   0.04260   0.04606
 Alpha virt. eigenvalues --    0.06018   0.06687   0.07085   0.07290   0.08660

 Mulliken charges:
               1
     1  C   -0.042380
     2  C   -0.345002
     3  C   -0.042379
     4  C   -0.004827
     5  C    0.167999
     6  C   -0.004827
     7  N   -0.622036
     8  N   -0.303008
     9  O   -0.029687
    10  O   -0.029687
    11  H    0.178587
    12  H    0.178587
    13  H    0.135076
    14  H    0.135076
    15  H    0.314254
    16  H    0.314254
 Sum of Mulliken charges =  -0.00000

 Dipole moment (field-independent basis, Debye):
    X=             -8.0637    Y=              0.0000    Z=              0.0003  Tot=              8.0637
 Quadrupole moment (field-independent basis, Debye-Ang):
   XX=            -55.6362   YY=            -53.1846   ZZ=            -60.9128
   XY=              0.0000   XZ=              0.0013   YZ=              0.0002

  Exact polarizability: 170.174   0.000 102.680  -0.002   0.002  51.633
 Approx polarizability: 388.551   0.000 241.409  -0.006   0.005  82.943

 ******    1 imaginary frequencies (negative Signs) ******

                      1                      2                      3
                      A                      A                      A
 Frequencies --   -239.7500                71.1748               104.7425
 Red. masses --      1.2440                 7.6262                 5.7693
 Frc consts  --      0.0421                 0.0228                 0.0373
 IR Inten    --    214.1128                 0.0000                 0.0084

                      4                      5                      6
                      A                      A                      A
 Frequencies --    216.6427               276.4215               352.5511
 Red. masses --      6.4490                 5.4468                 9.4323
 Frc consts  --      0.1783                 0.2452                 0.6907
 IR Inten    --      0.1492                 4.2879                 0.0059

                      7                      8                      9
                      A                      A                      A
 Frequencies --    376.8917               404.3642               416.3367
 Red. masses --      3.0246                 1.5386                 1.5222
 Frc consts  --      0.2531                 0.1482                 0.1555
 IR Inten    --      1.0598                 0.0000                 0.0000

                     10                     11                     12
                      A                      A                      A
 Frequencies --    478.3937               521.1641               621.3683
 Red. masses --      2.6720                 6.8721                 7.0397
 Frc consts  --      0.3603                 1.0997                 1.6014
 IR Inten    --     19.7107                 2.2115                10.5662

                     13                     14                     15
                      A                      A                      A
 Frequencies --    624.4530               667.9083               720.7345
 Red. masses --      6.8345                 3.4002                 8.0149
 Frc consts  --      1.5702                 0.8937                 2.4530
 IR Inten    --      0.8657                12.8148                13.0528

                     16                     17                     18
                      A                      A                      A
 Frequencies --    783.9035               796.8535               811.0802
 Red. masses --      1.2613                 6.5410                 1.9086
 Frc consts  --      0.4567                 2.4471                 0.7398
 IR Inten    --      0.0000                 2.2440                43.9904

                     19                     20                     21
                      A                      A                      A
 Frequencies --    846.6767               932.4832               936.5928
 Red. masses --      7.2846                 1.2669                 1.3221
 Frc consts  --      3.0767                 0.6490                 0.6833
 IR Inten    --     16.3960                 2.1902                 0.0000

                     22                     23                     24
                      A                      A                      A
 Frequencies --    987.5690              1007.6659              1100.0083
 Red. masses --      2.7763                 1.4035                 2.3397
 Frc consts  --      1.5953                 0.8397                 1.6680
 IR Inten    --      1.1739                 0.2371               115.9161

                     25                     26                     27
                      A                      A                      A
 Frequencies --   1108.4779              1171.0863              1280.5505
 Red. masses --      1.1448                 1.3662                 1.3208
 Frc consts  --      0.8288                 1.1039                 1.2761
 IR Inten    --     16.6238                17.3804                 0.1100

                     28                     29                     30
                      A                      A                      A
 Frequencies --   1307.5623              1324.8551              1384.5984
 Red. masses --      7.3019                 3.2856                 6.5282
 Frc consts  --      7.3555                 3.3978                 7.3738
 IR Inten    --    754.7174                31.0693                 2.1959

                     31                     32                     33
                      A                      A                      A
 Frequencies --   1445.1995              1495.2953              1512.9494
 Red. masses --      4.2097                 2.8274                12.2295
 Frc consts  --      5.1804                 3.7247                16.4934
 IR Inten    --      3.5416                43.8256               185.4157

                     34                     35                     36
                      A                      A                      A
 Frequencies --   1589.5528              1602.6425              1626.0299
 Red. masses --      7.9030                 1.6340                 2.8452
 Frc consts  --     11.7650                 2.4728                 4.4322
 IR Inten    --     47.2234                 0.1173               422.6575

                     37                     38                     39
                      A                      A                      A
 Frequencies --   3118.6397              3119.3429              3166.2289
 Red. masses --      1.0899                 1.0897                 1.0922
 Frc consts  --      6.2454                 6.2471                 6.4511
 IR Inten    --     10.8493                13.2210                 0.1059

                     40                     41                     42
                      A                      A                      A
 Frequencies --   3166.4728              3556.5850              3683.1924
 Red. masses --      1.0928                 1.0456                 1.1046
 Frc consts  --      6.4558                 7.7928                 8.8289
 IR Inten    --      4.0393               120.2775                39.6905

 - Thermochemistry -
 -------------------
 Temperature   298.150 Kelvin.  Pressure   1.00000 Atm.
 Atom     1 has atomic number  6 and mass  12.00000

 Molecular mass:   138.04293 amu.
 Principal axes and moments of inertia in atomic units:
                           1         2         3
     Eigenvalues --   467.764032218.889092686.65312
           X            1.00000   0.00000   0.00002
           Y           -0.00000   1.00000  -0.00003
           Z           -0.00002   0.00003   1.00000
 This molecule is an asymmetric top.
 Rotational symmetry number  1.
 Warning -- assumption of classical behavior for rotation
           may cause significant error
 Rotational temperatures (Kelvin)      0.18517     0.03903     0.03224
 Rotational constants (GHZ):           3.85823     0.81335     0.67174
    1 imaginary frequencies ignored.
 Zero-point vibrational energy     303344.5 (Joules/Mol)
                                   72.50108 (Kcal/Mol)
 Warning -- explicit consideration of  10 degrees of freedom as
           vibrations may cause significant error
 Vibrational temperatures:    102.40   150.70   311.70   397.71   507.24
          (Kelvin)            542.26   581.79   599.01   688.30   749.84
                              894.01   898.45   960.97  1036.97  1127.86
                             1146.49  1166.96  1218.18  1341.63  1347.55
                             1420.89  1449.80  1582.66  1594.85  1684.93
                             1842.42  1881.29  1906.17  1992.13  2079.32
                             2151.39  2176.79  2287.01  2305.84  2339.49
                             4487.02  4488.03  4555.49  4555.84  5117.13
                             5299.29

 Zero-point correction=                           0.115538 (Hartree/Particle)
 Thermal correction to Energy=                    0.123746
 Thermal correction to Enthalpy=                  0.124690
 Thermal correction to Gibbs Free Energy=         0.082159
 Sum of electronic and zero-point Energies=           -491.484019
 Sum of electronic and thermal Energies=              -491.475811
 Sum of electronic and thermal Enthalpies=            -491.474867
 Sum of electronic and thermal Free Energies=         -491.517398

                     E (Thermal)             CV                S
                      KCal/Mol        Cal/Mol-Kelvin    Cal/Mol-Kelvin
 Total                   77.652             31.476             89.515
 Electronic               0.000              0.000              0.000
 Translational            0.889              2.981             40.679
 Rotational               0.889              2.981             29.413
 Vibrational             75.874             25.514             19.423
 Vibration     1          0.598              1.968              4.121
 Vibration     2          0.605              1.945              3.364
 Vibration     3          0.645              1.816              1.987
 Vibration     4          0.678              1.717              1.556
 Vibration     5          0.729              1.570              1.155
 Vibration     6          0.747              1.519              1.052
 Vibration     7          0.770              1.461              0.947
 Vibration     8          0.780              1.435              0.905
 Vibration     9          0.835              1.298              0.714
 Vibration    10          0.876              1.203              0.607

 Optimization completed.
    -- Stationary point found.
 Normal termination of Gaussian 09 at Thu Jun 13 21:55:35 2024.
