 Gaussian 09, Revision E.01,
 Gaussian 09:  ES64L-G09RevE.01 30-Nov-2015

 -----------------------------
 # opt freq wb97xd/6-31+g(d,p)
 -----------------------------

 ----------
 [No Title]
 ----------
 Symbolic Z-matrix:
 Charge =  1 Multiplicity = 1

 SCF Done:  E(RwB97XD) =  -492.320571404     A.U. after   17 cycles
 SCF Done:  E(RwB97XD) =  -492.321116194     A.U. after   13 cycles
 SCF Done:  E(RwB97XD) =  -492.321147332     A.U. after   12 cycles
 SCF Done:  E(RwB97XD) =  -492.321150955     A.U. after   11 cycles
 SCF Done:  E(RwB97XD) =  -492.321151689     A.U. after   10 cycles
 SCF Done:  E(RwB97XD) =  -492.321151640     A.U. after   10 cycles
 Optimization completed.
    -- Stationary point found.
 Normal termination of Gaussian 09 at Thu Jun 13 22:33:36 2024.

 ----------------------------------------------------------------------
 #N Geom=AllCheck Guess=TCheck SCRF=Check GenChk RwB97XD/6-31+G(d,p) Fr
 eq
 ----------------------------------------------------------------------

 Structure from the checkpoint file:  "WB97XDPNAyang.chk"
 ----------
 [No Title]
 ----------
 Charge =  1 Multiplicity = 1

                         Standard orientation:
 ---------------------------------------------------------------------
 Center     Atomic      Atomic             Coordinates (Angstroms)
 Number     Number       Type             X           Y           Z
 ---------------------------------------------------------------------
      1          6           0        0.058078    1.261244    0.000116
      2          6           0       -0.667721    0.036317    0.000323
      3          6           0        0.007245   -1.217276    0.000215
      4          6           0        1.368089   -1.238209    0.000044
      5          6           0        2.113496   -0.017255   -0.000087
      6          6           0        1.418006    1.232621   -0.000050
      7          7           0        3.444054   -0.044210   -0.000243
      8          7           0       -2.026580    0.105374    0.000514
      9          8           0       -2.661994   -1.088396   -0.000318
     10          8           0       -2.698111    1.109282   -0.000204
     11          1           0       -0.479361    2.202611    0.000159
     12          1           0       -0.554174   -2.143169    0.000317
     13          1           0        1.895682   -2.185716    0.000015
     14          1           0        1.981437    2.159326   -0.000143
     15          1           0        3.988731    0.805709   -0.000337
     16          1           0        3.954448   -0.915133   -0.000272
     17          1           0       -3.611406   -0.863505   -0.000835
 ---------------------------------------------------------------------

 SCF Done:  E(RwB97XD) =  -492.321151640     A.U. after    1 cycles

 The electronic state is 1-A.
 Alpha  occ. eigenvalues --  -19.54814 -19.51050 -14.88736 -14.66965 -10.56200
 Alpha  occ. eigenvalues --  -10.53905 -10.50802 -10.50600 -10.48812 -10.48755
 Alpha  occ. eigenvalues --   -1.53267  -1.36660  -1.23416  -1.18130  -1.10149
 Alpha  occ. eigenvalues --   -1.04705  -0.98468  -0.92282  -0.89618  -0.84816
 Alpha  occ. eigenvalues --   -0.83050  -0.81763  -0.80864  -0.79544  -0.73838
 Alpha  occ. eigenvalues --   -0.71009  -0.70369  -0.69559  -0.67578  -0.67202
 Alpha  occ. eigenvalues --   -0.62411  -0.61226  -0.59537  -0.58532  -0.52594
 Alpha  occ. eigenvalues --   -0.47218
 Alpha virt. eigenvalues --   -0.22685  -0.11515  -0.08731  -0.06701  -0.05574
 Alpha virt. eigenvalues --   -0.04261  -0.03215  -0.02455  -0.01196  -0.00588
 Alpha virt. eigenvalues --    0.00301   0.01638   0.01885   0.02454   0.02663

 Mulliken charges:
               1
     1  C    0.033649
     2  C   -0.593698
     3  C    0.259641
     4  C    0.049641
     5  C    0.034324
     6  C    0.085503
     7  N   -0.571124
     8  N   -0.254082
     9  O   -0.051109
    10  O    0.028218
    11  H    0.227227
    12  H    0.225898
    13  H    0.196303
    14  H    0.198068
    15  H    0.361943
    16  H    0.361576
    17  H    0.408020
 Sum of Mulliken charges =   1.00000

 Dipole moment (field-independent basis, Debye):
    X=              3.3163    Y=             -1.1347    Z=             -0.0006  Tot=              3.5051
 Quadrupole moment (field-independent basis, Debye-Ang):
   XX=             -7.9799   YY=            -44.1456   ZZ=            -58.4635
   XY=              4.8074   XZ=              0.0004   YZ=              0.0007

  Exact polarizability: 195.331  -6.232  86.091  -0.003  -0.001  44.477
 Approx polarizability: 222.972 -14.909 104.866  -0.005  -0.003  52.321

                      1                      2                      3
                      A                      A                      A
 Frequencies --     94.1749               104.2090               222.3171
 Red. masses --      4.9789                 7.2270                 5.7623
 Frc consts  --      0.0260                 0.0462                 0.1678
 IR Inten    --      2.8781                 0.0426                 1.1811

                      4                      5                      6
                      A                      A                      A
 Frequencies --    255.1697               373.1296               401.1606
 Red. masses --      4.6495                 8.3263                 2.4849
 Frc consts  --      0.1784                 0.6830                 0.2356
 IR Inten    --      0.0580                 2.1365                10.4683

                      7                      8                      9
                      A                      A                      A
 Frequencies --    404.0150               461.7839               490.9983
 Red. masses --      3.0749                 1.4409                 1.6385
 Frc consts  --      0.2957                 0.1810                 0.2327
 IR Inten    --      0.2031               162.1007                 5.0380

                     10                     11                     12
                      A                      A                      A
 Frequencies --    544.0289               548.9795               572.8262
 Red. masses --      5.9167                 1.2850                 1.0571
 Frc consts  --      1.0318                 0.2282                 0.2044
 IR Inten    --     10.8434               202.5789                 2.9618

                     13                     14                     15
                      A                      A                      A
 Frequencies --    624.7939               634.3506               690.4391
 Red. masses --      5.9884                 6.8348                 4.2581
 Frc consts  --      1.3773                 1.6204                 1.1960
 IR Inten    --     43.1199                 4.4638                15.2307

                     16                     17                     18
                      A                      A                      A
 Frequencies --    737.2860               758.4080               819.9680
 Red. masses --      7.1385                 5.0098                 1.2783
 Frc consts  --      2.2863                 1.6978                 0.5064
 IR Inten    --      4.9539                 9.9539                 0.6150

                     19                     20                     21
                      A                      A                      A
 Frequencies --    849.0587               861.5113              1005.2769
 Red. masses --      5.6921                 1.8543                 1.2783
 Frc consts  --      2.4177                 0.8109                 0.7611
 IR Inten    --     40.2351                75.4950                 0.1865

                     22                     23                     24
                      A                      A                      A
 Frequencies --   1006.0172              1011.6057              1055.2209
 Red. masses --      2.9663                 1.3272                 1.4869
 Frc consts  --      1.7688                 0.8002                 0.9755
 IR Inten    --      1.4541                 0.0154                10.8752

                     25                     26                     27
                      A                      A                      A
 Frequencies --   1096.1204              1190.5890              1219.9564
 Red. masses --      5.0337                 1.1969                 1.2520
 Frc consts  --      3.5633                 0.9996                 1.0978
 IR Inten    --    237.0921                92.5728               622.9864

                     28                     29                     30
                      A                      A                      A
 Frequencies --   1297.9754              1363.8295              1417.3034
 Red. masses --      1.6888                 1.3655                 2.0383
 Frc consts  --      1.6763                 1.4965                 2.4124
 IR Inten    --    489.7759                24.9164               136.1328

                     31                     32                     33
                      A                      A                      A
 Frequencies --   1434.4103              1453.9262              1564.3166
 Red. masses --      3.5116                 3.5278                 4.7216
 Frc consts  --      4.2570                 4.3937                 6.8076
 IR Inten    --      1.9124                83.3010               120.6179

                     34                     35                     36
                      A                      A                      A
 Frequencies --   1577.7181              1599.0678              1670.9298
 Red. masses --      2.5880                 5.5964                 4.7674
 Frc consts  --      3.7956                 8.4312                 7.8424
 IR Inten    --     31.0418                17.2993              1324.6703

                     37                     38                     39
                      A                      A                      A
 Frequencies --   1699.1960              1750.3506              3242.1304
 Red. masses --      1.4671                 5.1115                 1.0920
 Frc consts  --      2.4957                 9.2268                 6.7627
 IR Inten    --    445.2517                71.0832                 0.0819

                     40                     41                     42
                      A                      A                      A
 Frequencies --   3246.5803              3267.1282              3276.2807
 Red. masses --      1.0922                 1.0964                 1.0960
 Frc consts  --      6.7829                 6.8953                 6.9317
 IR Inten    --      0.0969                10.1417                 7.7267

                     43                     44                     45
                      A                      A                      A
 Frequencies --   3624.4772              3741.8363              3750.5576
 Red. masses --      1.0479                 1.0664                 1.1056
 Frc consts  --      8.1107                 8.7971                 9.1633
 IR Inten    --    383.1298               399.3842                88.0810

 - Thermochemistry -
 -------------------
 Temperature   298.150 Kelvin.  Pressure   1.00000 Atm.
 Atom     1 has atomic number  6 and mass  12.00000

 Molecular mass:   139.05075 amu.
 Principal axes and moments of inertia in atomic units:
                           1         2         3
     Eigenvalues --   477.059222184.381962661.44111
           X            0.99998   0.00609   0.00001
           Y           -0.00609   0.99998  -0.00000
           Z           -0.00001   0.00000   1.00000
 This molecule is an asymmetric top.
 Rotational symmetry number  1.
 Warning -- assumption of classical behavior for rotation
           may cause significant error
 Rotational temperatures (Kelvin)      0.18156     0.03965     0.03254
 Rotational constants (GHZ):           3.78305     0.82620     0.67811
 Zero-point vibrational energy     352966.6 (Joules/Mol)
                                   84.36104 (Kcal/Mol)
 Warning -- explicit consideration of  12 degrees of freedom as
           vibrations may cause significant error
 Vibrational temperatures:    135.50   149.93   319.86   367.13   536.85
          (Kelvin)            577.18   581.29   664.40   706.44   782.74
                              789.86   824.17   898.94   912.69   993.39
                             1060.79  1091.18  1179.75  1221.60  1239.52
                             1446.37  1447.43  1455.47  1518.23  1577.07
                             1712.99  1755.24  1867.49  1962.24  2039.18
                             2063.79  2091.87  2250.70  2269.98  2300.70
                             2404.09  2444.76  2518.36  4664.70  4671.10
                             4700.66  4713.83  5214.81  5383.66  5396.21

 Zero-point correction=                           0.134438 (Hartree/Particle)
 Thermal correction to Energy=                    0.142790
 Thermal correction to Enthalpy=                  0.143734
 Thermal correction to Gibbs Free Energy=         0.101217
 Sum of electronic and zero-point Energies=           -492.186714
 Sum of electronic and thermal Energies=              -492.178362
 Sum of electronic and thermal Enthalpies=            -492.177417
 Sum of electronic and thermal Free Energies=         -492.219935

                     E (Thermal)             CV                S
                      KCal/Mol        Cal/Mol-Kelvin    Cal/Mol-Kelvin
 Total                   89.602             32.825             89.486
 Electronic               0.000              0.000              0.000
 Translational            0.889              2.981             40.701
 Rotational               0.889              2.981             29.407
 Vibrational             87.825             26.863             19.378
 Vibration     1          0.603              1.953              3.571
 Vibration     2          0.605              1.946              3.374
 Vibration     3          0.648              1.807              1.940
 Vibration     4          0.666              1.754              1.695
 Vibration     5          0.745              1.527              1.067
 Vibration     6          0.767              1.468              0.958
 Vibration     7          0.769              1.461              0.948
 Vibration     8          0.820              1.335              0.761
 Vibration     9          0.847              1.270              0.681
 Vibration    10          0.899              1.153              0.557
 Vibration    11          0.904              1.142              0.546
 Vibration    12          0.929              1.090              0.499

 Optimization completed.
    -- Stationary point found.
 Normal termination of Gaussian 09 at Thu Jun 13 22:35:11 2024.
