 Gaussian 09, Revision E.01,
 Gaussian 09:  ES64L-G09RevE.01 30-Nov-2015

 -----------------------------
 # opt freq wb97xd/6-31+g(d,p)
 -----------------------------

 ----------
 [No Title]
 ----------
 Symbolic Z-matrix:
 Charge =  0 Multiplicity = 1

 SCF Done:  E(RwB97XD) =  -491.975604700     A.U. after   16 cycles
 SCF Done:  E(RwB97XD) =  -491.975987304     A.U. after   13 cycles
 SCF Done:  E(RwB97XD) =  -491.973245538     A.U. after   14 cycles
 SCF Done:  E(RwB97XD) =  -491.976025353     A.U. after   11 cycles
 SCF Done:  E(RwB97XD) =  -491.976044124     A.U. after   12 cycles
 SCF Done:  E(RwB97XD) =  -491.976045455     A.U. after   11 cycles
 Optimization completed.
    -- Stationary point found.
 Normal termination of Gaussian 09 at Thu Jun 13 21:57:56 2024.

 ----------------------------------------------------------------------
 #N Geom=AllCheck Guess=TCheck SCRF=Check GenChk RwB97XD/6-31+G(d,p) Fr
 eq
 ----------------------------------------------------------------------

 Structure from the checkpoint file:  "WB97XDPNA.chk"
 ----------
 [No Title]
 ----------
 Charge =  0 Multiplicity = 1

                         Standard orientation:
 ---------------------------------------------------------------------
 Center     Atomic      Atomic             Coordinates (Angstroms)
 Number     Number       Type             X           Y           Z
 ---------------------------------------------------------------------
      1          6           0        0.022448   -1.212509    0.000009
      2          6           0        0.708239    0.000001    0.000050
      3          6           0        0.022447    1.212510    0.000080
      4          6           0       -1.360188    1.212343    0.000070
      5          6           0       -2.076988   -0.000000    0.000030
      6          6           0       -1.360188   -1.212343   -0.000000
      7          7           0       -3.444405   -0.000000    0.000023
      8          7           0        2.162588    0.000000    0.000057
      9          8           0        2.737598    1.082294   -0.000099
     10          8           0        2.737595   -1.082295   -0.000171
     11          1           0        0.579123   -2.141713   -0.000016
     12          1           0        0.579122    2.141714    0.000109
     13          1           0       -1.897793    2.155632    0.000093
     14          1           0       -1.897792   -2.155632   -0.000033
     15          1           0       -3.963050   -0.860200   -0.000018
     16          1           0       -3.963050    0.860199    0.000031
 ---------------------------------------------------------------------

 SCF Done:  E(RwB97XD) =  -491.976045455     A.U. after    1 cycles

 The electronic state is 1-A.
 Alpha  occ. eigenvalues --  -19.30369 -19.30367 -14.69534 -14.49763 -10.38455
 Alpha  occ. eigenvalues --  -10.35664 -10.33633 -10.33632 -10.32643 -10.32643
 Alpha  occ. eigenvalues --   -1.33390  -1.15498  -1.05956  -0.98529  -0.89735
 Alpha  occ. eigenvalues --   -0.87828  -0.79376  -0.74254  -0.69791  -0.65789
 Alpha  occ. eigenvalues --   -0.64342  -0.63213  -0.62570  -0.59789  -0.55592
 Alpha  occ. eigenvalues --   -0.54698  -0.53471  -0.50866  -0.50661  -0.45285
 Alpha  occ. eigenvalues --   -0.42969  -0.39412  -0.39166  -0.37566  -0.35857
 Alpha  occ. eigenvalues --   -0.30719
 Alpha virt. eigenvalues --   -0.01678   0.03534   0.04773   0.06795   0.07459
 Alpha virt. eigenvalues --    0.07727   0.09550   0.09997   0.12211   0.12255
 Alpha virt. eigenvalues --    0.13738   0.14232   0.14940   0.15637   0.17212

 Mulliken charges:
               1
     1  C    0.010060
     2  C   -0.415006
     3  C    0.010061
     4  C    0.040603
     5  C   -0.000991
     6  C    0.040601
     7  N   -0.666009
     8  N   -0.178045
     9  O   -0.087591
    10  O   -0.087591
    11  H    0.194919
    12  H    0.194919
    13  H    0.148401
    14  H    0.148401
    15  H    0.323634
    16  H    0.323634
 Sum of Mulliken charges =   0.00000

 Dipole moment (field-independent basis, Debye):
    X=             -7.5438    Y=              0.0000    Z=              0.0004  Tot=              7.5438
 Quadrupole moment (field-independent basis, Debye-Ang):
   XX=            -56.3939   YY=            -52.3690   ZZ=            -60.5403
   XY=              0.0000   XZ=              0.0016   YZ=              0.0002

  Exact polarizability: 145.219   0.000  97.624  -0.002   0.001  49.727
 Approx polarizability: 145.661   0.000 125.109  -0.002   0.002  57.073

 ******    1 imaginary frequencies (negative Signs) ******

                      1                      2                      3
                      A                      A                      A
 Frequencies --   -257.1193                68.6629               112.0909
 Red. masses --      1.2386                 7.7653                 5.7278
 Frc consts  --      0.0482                 0.0216                 0.0424
 IR Inten    --    241.4622                 0.0000                 0.0021

                      4                      5                      6
                      A                      A                      A
 Frequencies --    231.7653               290.6531               371.1910
 Red. masses --      6.4319                 5.6139                 9.5065
 Frc consts  --      0.2036                 0.2794                 0.7717
 IR Inten    --      0.2356                 3.3539                 0.0139

                      7                      8                      9
                      A                      A                      A
 Frequencies --    398.0348               410.4804               427.9228
 Red. masses --      3.1175                 1.0163                 3.0412
 Frc consts  --      0.2910                 0.1009                 0.3281
 IR Inten    --      0.9298                 0.0000                 0.0000

                     10                     11                     12
                      A                      A                      A
 Frequencies --    501.9266               544.7307               651.3539
 Red. masses --      2.6947                 6.8825                 6.8433
 Frc consts  --      0.4000                 1.2033                 1.7106
 IR Inten    --     21.0743                 2.7956                 1.0214

                     13                     14                     15
                      A                      A                      A
 Frequencies --    651.4259               698.0489               761.9471
 Red. masses --      7.0142                 3.1255                 7.9492
 Frc consts  --      1.7537                 0.8973                 2.7191
 IR Inten    --     17.6367                12.0887                23.9363

                     16                     17                     18
                      A                      A                      A
 Frequencies --    830.7777               839.3622               857.3745
 Red. masses --      1.2585                 6.0700                 1.9255
 Frc consts  --      0.5118                 2.5197                 0.8339
 IR Inten    --      0.0000                 2.2918                49.7980

                     19                     20                     21
                      A                      A                      A
 Frequencies --    890.0259               989.6825              1000.1559
 Red. masses --      8.4232                 1.2971                 1.3336
 Frc consts  --      3.9313                 0.7485                 0.7860
 IR Inten    --     26.8183                 1.7816                 0.0000

                     22                     23                     24
                      A                      A                      A
 Frequencies --   1029.1625              1049.3158              1158.1444
 Red. masses --      2.8327                 1.3934                 2.3870
 Frc consts  --      1.7678                 0.9039                 1.8864
 IR Inten    --      2.3605                 0.0091               146.6505

                     25                     26                     27
                      A                      A                      A
 Frequencies --   1165.0782              1227.9652              1348.1903
 Red. masses --      1.1881                 1.3610                 1.3146
 Frc consts  --      0.9502                 1.2092                 1.4078
 IR Inten    --     16.0711                20.3902                 0.1833

                     28                     29                     30
                      A                      A                      A
 Frequencies --   1364.7495              1387.6602              1439.0690
 Red. masses --      2.9279                 7.9784                11.7519
 Frc consts  --      3.2130                 9.0517                14.3391
 IR Inten    --    175.7177                 0.5021               589.2252

                     31                     32                     33
                      A                      A                      A
 Frequencies --   1501.3535              1566.1313              1636.4206
 Red. masses --      3.3252                 2.6348                 9.5854
 Frc consts  --      4.4161                 3.8076                15.1234
 IR Inten    --      1.0738                45.4350               114.2772

                     34                     35                     36
                      A                      A                      A
 Frequencies --   1665.5381              1691.0274              1692.2429
 Red. masses --      1.3969                 9.6328                 3.8672
 Frc consts  --      2.2831                16.2295                 6.5250
 IR Inten    --     24.4945               205.5635               448.2066

                     37                     38                     39
                      A                      A                      A
 Frequencies --   3223.6459              3224.4224              3267.5795
 Red. masses --      1.0910                 1.0906                 1.0935
 Frc consts  --      6.6798                 6.6805                 6.8789
 IR Inten    --      9.8550                12.4777                 0.2279

                     40                     41                     42
                      A                      A                      A
 Frequencies --   3268.0286              3678.3260              3809.4139
 Red. masses --      1.0941                 1.0462                 1.1051
 Frc consts  --      6.8844                 8.3398                 9.4483
 IR Inten    --      3.5769               114.3879                46.1525

 - Thermochemistry -
 -------------------
 Temperature   298.150 Kelvin.  Pressure   1.00000 Atm.
 Atom     1 has atomic number  6 and mass  12.00000

 Molecular mass:   138.04293 amu.
 Principal axes and moments of inertia in atomic units:
                           1         2         3
     Eigenvalues --   457.574422186.809662644.38408
           X            1.00000   0.00000   0.00002
           Y            0.00000   1.00000  -0.00003
           Z           -0.00002   0.00003   1.00000
 This molecule is an asymmetric top.
 Rotational symmetry number  1.
 Warning -- assumption of classical behavior for rotation
           may cause significant error
 Rotational temperatures (Kelvin)      0.18929     0.03961     0.03275
 Rotational constants (GHZ):           3.94415     0.82528     0.68248
    1 imaginary frequencies ignored.
 Zero-point vibrational energy     316538.3 (Joules/Mol)
                                   75.65448 (Kcal/Mol)
 Warning -- explicit consideration of  10 degrees of freedom as
           vibrations may cause significant error
 Vibrational temperatures:     98.79   161.27   333.46   418.18   534.06
          (Kelvin)            572.68   590.59   615.68   722.16   783.75
                              937.15   937.26  1004.34  1096.27  1195.30
                             1207.65  1233.57  1280.55  1423.93  1439.00
                             1480.73  1509.73  1666.31  1676.29  1766.77
                             1939.74  1963.57  1996.53  2070.50  2160.11
                             2253.31  2354.44  2396.33  2433.01  2434.76
                             4638.10  4639.22  4701.31  4701.96  5292.28
                             5480.89

 Zero-point correction=                           0.120563 (Hartree/Particle)
 Thermal correction to Energy=                    0.128467
 Thermal correction to Enthalpy=                  0.129412
 Thermal correction to Gibbs Free Energy=         0.087407
 Sum of electronic and zero-point Energies=           -491.855482
 Sum of electronic and thermal Energies=              -491.847578
 Sum of electronic and thermal Enthalpies=            -491.846634
 Sum of electronic and thermal Free Energies=         -491.888639

                     E (Thermal)             CV                S
                      KCal/Mol        Cal/Mol-Kelvin    Cal/Mol-Kelvin
 Total                   80.614             30.110             88.407
 Electronic               0.000              0.000              0.000
 Translational            0.889              2.981             40.679
 Rotational               0.889              2.981             29.360
 Vibrational             78.837             24.148             18.367
 Vibration     1          0.598              1.969              4.191
 Vibration     2          0.607              1.939              3.232
 Vibration     3          0.653              1.792              1.865
 Vibration     4          0.687              1.691              1.470
 Vibration     5          0.743              1.531              1.075
 Vibration     6          0.764              1.474              0.970
 Vibration     7          0.775              1.447              0.925
 Vibration     8          0.789              1.409              0.865
 Vibration     9          0.857              1.246              0.653
 Vibration    10          0.900              1.151              0.555

 Optimization completed.
    -- Stationary point found.
 Normal termination of Gaussian 09 at Thu Jun 13 21:59:22 2024.
