 Gaussian 09, Revision E.01,
 Gaussian 09:  ES64L-G09RevE.01 30-Nov-2015

 -------------------------------------------------------
 # opt freq B2PLYP/6-31+g(d,p) EmpiricalDispersion=GD3BJ
 -------------------------------------------------------

 ----------
 [No Title]
 ----------
 Symbolic Z-matrix:
 Charge =  1 Multiplicity = 1

 SCF Done:  E(RB2PLYP) =  -511.522758746     A.U. after   15 cycles
 E2(B2PLYP) =    -0.4968945740D+00 E(B2PLYP) =    -0.51201965331997D+03
 SCF Done:  E(RB2PLYP) =  -511.522142911     A.U. after   11 cycles
 E2(B2PLYP) =    -0.4976967953D+00 E(B2PLYP) =    -0.51201983970610D+03
 SCF Done:  E(RB2PLYP) =  -511.522090785     A.U. after   10 cycles
 E2(B2PLYP) =    -0.4977575665D+00 E(B2PLYP) =    -0.51201984835189D+03
 SCF Done:  E(RB2PLYP) =  -511.522091194     A.U. after    9 cycles
 E2(B2PLYP) =    -0.4977576350D+00 E(B2PLYP) =    -0.51201984882878D+03
 SCF Done:  E(RB2PLYP) =  -511.522090373     A.U. after   10 cycles
 E2(B2PLYP) =    -0.4977582127D+00 E(B2PLYP) =    -0.51201984858556D+03
 SCF Done:  E(RB2PLYP) =  -511.522096526     A.U. after    9 cycles
 E2(B2PLYP) =    -0.4977526135D+00 E(B2PLYP) =    -0.51201984913958D+03
 Optimization completed.
    -- Stationary point found.
 Normal termination of Gaussian 09 at Wed Dec 18 14:57:15 2024.

 ----------------------------------------------------------------------
 #N Geom=AllCheck Guess=TCheck SCRF=Check GenChk RB2PLYP(FC)/6-31+G(d,p
 ) Freq
 ----------------------------------------------------------------------

 Structure from the checkpoint file:  "B2PLYPD3BJ3HPA2.chk"
 ----------
 [No Title]
 ----------
 Charge =  1 Multiplicity = 1

                         Standard orientation:
 ---------------------------------------------------------------------
 Center     Atomic      Atomic             Coordinates (Angstroms)
 Number     Number       Type             X           Y           Z
 ---------------------------------------------------------------------
      1          7           0       -0.508313   -1.354700   -0.000047
      2          6           0       -1.842411   -1.421489   -0.000018
      3          6           0       -2.569137   -0.226574    0.000051
      4          6           0       -1.897899    0.983753    0.000088
      5          6           0       -0.483140    1.022377    0.000056
      6          6           0        0.208148   -0.197959   -0.000013
      7          6           0        1.679128   -0.424896   -0.000058
      8          8           0        2.156616   -1.538719   -0.000119
      9          8           0        2.367401    0.731292   -0.000024
     10          8           0        0.090209    2.221480    0.000094
     11          1           0        0.059883   -2.205904   -0.000097
     12          1           0       -2.289341   -2.405366   -0.000050
     13          1           0       -3.649904   -0.262705    0.000075
     14          1           0       -2.431547    1.926380    0.000141
     15          1           0        3.324954    0.546660   -0.000055
     16          1           0        1.062211    2.160137    0.000068
 ---------------------------------------------------------------------

 SCF Done:  E(RB2PLYP) =  -511.522096526     A.U. after    1 cycles
 E2(B2PLYP) =    -0.4977526153D+00 E(B2PLYP) =    -0.51201984914145D+03
 E2(B2PLYP) =    -0.4977526153D+00 E(B2PLYP) =    -0.51201984914144D+03

 The electronic state is 1-A.
 Alpha  occ. eigenvalues --  -19.99274 -19.96717 -19.93278 -15.15739 -10.97568
 Alpha  occ. eigenvalues --  -10.92437 -10.90177 -10.90124 -10.85675 -10.85249
 Alpha  occ. eigenvalues --   -1.45309  -1.40893  -1.36652  -1.34284  -1.14405
 Alpha  occ. eigenvalues --   -1.11711  -0.99776  -0.96242  -0.92750  -0.86722
 Alpha  occ. eigenvalues --   -0.83605  -0.80150  -0.77524  -0.76154  -0.75063
 Alpha  occ. eigenvalues --   -0.74139  -0.69422  -0.68992  -0.67663  -0.66787
 Alpha  occ. eigenvalues --   -0.65786  -0.62019  -0.58152  -0.55385  -0.53935
 Alpha  occ. eigenvalues --   -0.48737
 Alpha virt. eigenvalues --   -0.22591  -0.16779  -0.11603  -0.09736  -0.08202
 Alpha virt. eigenvalues --   -0.08031  -0.07425  -0.06261  -0.06026  -0.05233
 Alpha virt. eigenvalues --   -0.02904  -0.02779  -0.01783  -0.01438  -0.00222

 Mulliken charges:
               1
     1  N   -0.246544
     2  C   -0.108238
     3  C    0.095521
     4  C    0.023745
     5  C    0.368065
     6  C    0.068776
     7  C    0.457338
     8  O   -0.474899
     9  O   -0.621888
    10  O   -0.546638
    11  H    0.397736
    12  H    0.229059
    13  H    0.226413
    14  H    0.229554
    15  H    0.456249
    16  H    0.445750
 Sum of Mulliken charges =   1.00000

 Dipole moment (field-independent basis, Debye):
    X=             -2.9495    Y=             -1.3266    Z=              0.0000  Tot=              3.2341
 Quadrupole moment (field-independent basis, Debye-Ang):
   XX=            -25.4490   YY=            -45.3424   ZZ=            -56.5492
   XY=             10.0312   XZ=             -0.0003   YZ=              0.0002

  Exact polarizability: 109.061   1.607  94.138  -0.002   0.002  41.169
 Approx polarizability: 123.457  -0.067 123.563  -0.002   0.003  52.136

                      1                      2                      3
                      A                      A                      A
 Frequencies --     85.5278               130.8490               223.3597
 Red. masses --     10.7155                 4.5914                 6.4105
 Frc consts  --      0.0462                 0.0463                 0.1884
 IR Inten    --      3.6954                 0.0423                 6.9071

                      4                      5                      6
                      A                      A                      A
 Frequencies --    234.7716               363.4966               400.0863
 Red. masses --      4.7997                 7.7871                 3.5690
 Frc consts  --      0.1559                 0.6062                 0.3366
 IR Inten    --      2.6049                 6.2608                 9.3636

                      7                      8                      9
                      A                      A                      A
 Frequencies --    410.5378               528.6728               548.2231
 Red. masses --      6.9324                 2.8843                 6.0590
 Frc consts  --      0.6884                 0.4750                 1.0729
 IR Inten    --     14.1262                29.0320                 2.8278

                     10                     11                     12
                      A                      A                      A
 Frequencies --    565.4435               573.7656               590.5185
 Red. masses --      1.5421                 6.5886                 1.1415
 Frc consts  --      0.2905                 1.2780                 0.2345
 IR Inten    --    130.8441                14.3717                 5.0925

                     13                     14                     15
                      A                      A                      A
 Frequencies --    624.5475               632.6701               730.2122
 Red. masses --      3.0387                 5.1645                 7.9893
 Frc consts  --      0.6983                 1.2180                 2.5099
 IR Inten    --    102.0683                32.1646                45.8389

                     16                     17                     18
                      A                      A                      A
 Frequencies --    748.7361               800.3266               883.8232
 Red. masses --      4.7291                 1.3064                 1.2173
 Frc consts  --      1.5620                 0.4930                 0.5603
 IR Inten    --     12.6209                78.7204                11.7676

                     19                     20                     21
                      A                      A                      A
 Frequencies --    886.0887               961.0884               992.3974
 Red. masses --      5.9517                 1.2759                 1.2611
 Frc consts  --      2.7532                 0.6944                 0.7317
 IR Inten    --     18.7394                11.3445                 0.0016

                     22                     23                     24
                      A                      A                      A
 Frequencies --   1075.8736              1128.8038              1156.9591
 Red. masses --      2.4866                 2.1693                 3.1483
 Frc consts  --      1.6958                 1.6286                 2.4830
 IR Inten    --     22.1816                10.8135               115.9094

                     25                     26                     27
                      A                      A                      A
 Frequencies --   1192.8636              1253.8921              1277.6137
 Red. masses --      1.2766                 1.3533                 1.4710
 Frc consts  --      1.0703                 1.2536                 1.4147
 IR Inten    --     63.6153                14.6949               255.2785

                     28                     29                     30
                      A                      A                      A
 Frequencies --   1339.7987              1377.2338              1405.9429
 Red. masses --      3.5419                 1.6899                 2.0882
 Frc consts  --      3.7460                 1.8886                 2.4319
 IR Inten    --    115.7614                59.6133                80.0088

                     31                     32                     33
                      A                      A                      A
 Frequencies --   1459.6818              1538.8602              1579.3253
 Red. masses --      4.7156                 2.8772                 2.3914
 Frc consts  --      5.9197                 4.0144                 3.5144
 IR Inten    --     19.6278                58.8589               235.7809

                     34                     35                     36
                      A                      A                      A
 Frequencies --   1643.3617              1683.5054              1816.2210
 Red. masses --      5.8792                 4.9856                10.2834
 Frc consts  --      9.3547                 8.3252                19.9859
 IR Inten    --     15.6734                21.5400               315.5439

                     37                     38                     39
                      A                      A                      A
 Frequencies --   3256.4740              3274.7803              3288.8820
 Red. masses --      1.0929                 1.0948                 1.0988
 Frc consts  --      6.8287                 6.9173                 7.0029
 IR Inten    --      6.0758                 7.9209                17.8912

                     40                     41                     42
                      A                      A                      A
 Frequencies --   3489.7772              3712.7993              3738.9935
 Red. masses --      1.0803                 1.0665                 1.0650
 Frc consts  --      7.7515                 8.6622                 8.7722
 IR Inten    --    190.8279               351.7397               160.4959

 - Thermochemistry -
 -------------------
 Temperature   298.150 Kelvin.  Pressure   1.00000 Atm.
 Atom     1 has atomic number  7 and mass  14.00307

 Molecular mass:   140.03477 amu.
 Principal axes and moments of inertia in atomic units:
                           1         2         3
     Eigenvalues --   793.075251446.726602239.80185
           X            0.99951   0.03123   0.00002
           Y           -0.03123   0.99951  -0.00004
           Z           -0.00003   0.00004   1.00000
 This molecule is an asymmetric top.
 Rotational symmetry number  1.
 Warning -- assumption of classical behavior for rotation
           may cause significant error
 Rotational temperatures (Kelvin)      0.10921     0.05987     0.03867
 Rotational constants (GHZ):           2.27562     1.24747     0.80576
 Zero-point vibrational energy     320639.8 (Joules/Mol)
                                   76.63475 (Kcal/Mol)
 Warning -- explicit consideration of  12 degrees of freedom as
           vibrations may cause significant error
 Vibrational temperatures:    123.06   188.26   321.36   337.78   522.99
          (Kelvin)            575.63   590.67   760.64   788.77   813.55
                              825.52   849.62   898.58   910.27  1050.61
                             1077.26  1151.49  1271.62  1274.88  1382.79
                             1427.84  1547.94  1624.09  1664.60  1716.26
                             1804.07  1838.20  1927.67  1981.53  2022.84
                             2100.15  2214.07  2272.29  2364.43  2422.19
                             2613.13  4685.33  4711.67  4731.96  5021.00
                             5341.88  5379.57

 Zero-point correction=                           0.122125 (Hartree/Particle)
 Thermal correction to Energy=                    0.130217
 Thermal correction to Enthalpy=                  0.131161
 Thermal correction to Gibbs Free Energy=         0.089085
 Sum of electronic and zero-point Energies=           -511.897724
 Sum of electronic and thermal Energies=              -511.889632
 Sum of electronic and thermal Enthalpies=            -511.888688
 Sum of electronic and thermal Free Energies=         -511.930764

                     E (Thermal)             CV                S
                      KCal/Mol        Cal/Mol-Kelvin    Cal/Mol-Kelvin
 Total                   81.712             31.429             88.557
 Electronic               0.000              0.000              0.000
 Translational            0.889              2.981             40.722
 Rotational               0.889              2.981             29.331
 Vibrational             79.935             25.467             18.504
 Vibration     1          0.601              1.959              3.760
 Vibration     2          0.612              1.922              2.934
 Vibration     3          0.649              1.805              1.932
 Vibration     4          0.655              1.788              1.842
 Vibration     5          0.737              1.547              1.107
 Vibration     6          0.766              1.470              0.962
 Vibration     7          0.775              1.447              0.925
 Vibration     8          0.884              1.187              0.590
 Vibration     9          0.903              1.144              0.548
 Vibration    10          0.921              1.106              0.513
 Vibration    11          0.930              1.088              0.497
 Vibration    12          0.948              1.052              0.466

 Optimization completed.
    -- Stationary point found.
 Normal termination of Gaussian 09 at Wed Dec 18 15:06:17 2024.
