 Gaussian 09, Revision E.01,
 Gaussian 09:  ES64L-G09RevE.01 30-Nov-2015

 -------------------------------------------------------
 # opt freq B2PLYP/6-31+g(d,p) EmpiricalDispersion=GD3BJ
 -------------------------------------------------------

 ----------
 [No Title]
 ----------
 Symbolic Z-matrix:
 Charge =  0 Multiplicity = 1

 SCF Done:  E(RB2PLYP) =  -511.160755699     A.U. after   15 cycles
 E2(B2PLYP) =    -0.4990860829D+00 E(B2PLYP) =    -0.51165984178195D+03
 SCF Done:  E(RB2PLYP) =  -511.160213470     A.U. after   13 cycles
 E2(B2PLYP) =    -0.4998172540D+00 E(B2PLYP) =    -0.51166003072391D+03
 SCF Done:  E(RB2PLYP) =  -511.160089792     A.U. after   12 cycles
 E2(B2PLYP) =    -0.5000076198D+00 E(B2PLYP) =    -0.51166009741212D+03
 SCF Done:  E(RB2PLYP) =  -511.160230908     A.U. after   10 cycles
 E2(B2PLYP) =    -0.4998871586D+00 E(B2PLYP) =    -0.51166011806613D+03
 SCF Done:  E(RB2PLYP) =  -511.160283412     A.U. after    9 cycles
 E2(B2PLYP) =    -0.4998361443D+00 E(B2PLYP) =    -0.51166011955652D+03
 SCF Done:  E(RB2PLYP) =  -511.160278759     A.U. after    9 cycles
 E2(B2PLYP) =    -0.4998407505D+00 E(B2PLYP) =    -0.51166011950937D+03
 Optimization completed.
    -- Stationary point found.
 Normal termination of Gaussian 09 at Wed Dec 18 00:38:41 2024.

 ----------------------------------------------------------------------
 #N Geom=AllCheck Guess=TCheck SCRF=Check GenChk RB2PLYP(FC)/6-31+G(d,p
 ) Freq
 ----------------------------------------------------------------------

 Structure from the checkpoint file:  "B2PLYPD3BJ3HPA.chk"
 ----------
 [No Title]
 ----------
 Charge =  0 Multiplicity = 1

                         Standard orientation:
 ---------------------------------------------------------------------
 Center     Atomic      Atomic             Coordinates (Angstroms)
 Number     Number       Type             X           Y           Z
 ---------------------------------------------------------------------
      1          7           0       -0.435103   -1.453663   -0.000366
      2          6           0       -1.764033   -1.483710   -0.000103
      3          6           0       -2.553965   -0.320313    0.000245
      4          6           0       -1.934449    0.917834    0.000270
      5          6           0       -0.531259    0.972555   -0.000058
      6          6           0        0.176386   -0.252357   -0.000370
      7          6           0        1.652597   -0.222260   -0.000592
      8          8           0        2.302850    0.829755    0.000763
      9          8           0        2.249527   -1.419493    0.000094
     10          8           0        0.058469    2.181622   -0.000196
     11          1           0       -2.223419   -2.465803   -0.000131
     12          1           0       -3.634606   -0.397114    0.000477
     13          1           0       -2.492851    1.845437    0.000492
     14          1           0        3.206272   -1.248747    0.000792
     15          1           0        1.031892    2.036311   -0.000715
 ---------------------------------------------------------------------

 SCF Done:  E(RB2PLYP) =  -511.160278759     A.U. after    1 cycles
 E2(B2PLYP) =    -0.4998407486D+00 E(B2PLYP) =    -0.51166011950749D+03
 E2(B2PLYP) =    -0.4998407486D+00 E(B2PLYP) =    -0.51166011950749D+03

 The electronic state is 1-A.
 Alpha  occ. eigenvalues --  -19.81851 -19.78804 -19.76801 -14.88210 -10.80227
 Alpha  occ. eigenvalues --  -10.73141 -10.69348 -10.67950 -10.66805 -10.66388
 Alpha  occ. eigenvalues --   -1.28415  -1.22752  -1.18142  -1.09808  -0.94273
 Alpha  occ. eigenvalues --   -0.90671  -0.80220  -0.74622  -0.72769  -0.64568
 Alpha  occ. eigenvalues --   -0.63693  -0.60757  -0.58265  -0.56110  -0.55586
 Alpha  occ. eigenvalues --   -0.51002  -0.50406  -0.49696  -0.48448  -0.47578
 Alpha  occ. eigenvalues --   -0.44639  -0.41260  -0.38845  -0.34472  -0.34408
 Alpha  occ. eigenvalues --   -0.29554
 Alpha virt. eigenvalues --   -0.02766   0.02388   0.02576   0.03268   0.05166
 Alpha virt. eigenvalues --    0.05719   0.07070   0.07402   0.08016   0.08878
 Alpha virt. eigenvalues --    0.09936   0.10353   0.11073   0.11647   0.12842

 Mulliken charges:
               1
     1  N   -0.208740
     2  C   -0.150099
     3  C    0.076413
     4  C    0.018758
     5  C    0.041579
     6  C   -0.007312
     7  C    0.606340
     8  O   -0.607135
     9  O   -0.476829
    10  O   -0.599089
    11  H    0.145244
    12  H    0.162109
    13  H    0.172644
    14  H    0.393944
    15  H    0.432172
 Sum of Mulliken charges =  -0.00000

 Dipole moment (field-independent basis, Debye):
    X=             -1.5281    Y=             -0.5792    Z=             -0.0015  Tot=              1.6342
 Quadrupole moment (field-independent basis, Debye-Ang):
   XX=            -43.6567   YY=            -63.2851   ZZ=            -58.6556
   XY=             -2.2899   XZ=             -0.0045   YZ=             -0.0053

  Exact polarizability: 117.589   3.474  97.584  -0.002   0.005  46.840
 Approx polarizability: 130.821   6.203 124.310  -0.003   0.012  58.393

                      1                      2                      3
                      A                      A                      A
 Frequencies --     80.7309               132.8586               245.3814
 Red. masses --      9.0831                 6.0431                 5.0576
 Frc consts  --      0.0349                 0.0628                 0.1794
 IR Inten    --      1.0841                 3.1139                 1.4040

                      4                      5                      6
                      A                      A                      A
 Frequencies --    246.1823               365.7694               420.9422
 Red. masses --      6.4979                 7.5717                 4.0489
 Frc consts  --      0.2320                 0.5968                 0.4227
 IR Inten    --      2.6059                11.1573                 0.4303

                      7                      8                      9
                      A                      A                      A
 Frequencies --    439.9884               528.5946               537.7830
 Red. masses --      9.6957                 5.6041                 4.1591
 Frc consts  --      1.1059                 0.9226                 0.7087
 IR Inten    --      2.9607                 4.6580                 0.7038

                     10                     11                     12
                      A                      A                      A
 Frequencies --    580.3899               602.4593               650.6612
 Red. masses --      7.5684                 1.2671                 6.2601
 Frc consts  --      1.5021                 0.2710                 1.5615
 IR Inten    --      5.8856                71.7542                66.6177

                     13                     14                     15
                      A                      A                      A
 Frequencies --    692.1408               758.1199               760.8683
 Red. masses --      4.5426                 4.8309                 2.0605
 Frc consts  --      1.2822                 1.6359                 0.7028
 IR Inten    --     21.3746                23.7042               165.3807

                     16                     17                     18
                      A                      A                      A
 Frequencies --    770.1945               820.4942               880.3570
 Red. masses --      1.6756                 1.3737                 7.0242
 Frc consts  --      0.5856                 0.5449                 3.2075
 IR Inten    --     20.7804                10.9799                 7.5384

                     19                     20                     21
                      A                      A                      A
 Frequencies --    931.2330               970.7874              1076.3598
 Red. masses --      1.3284                 1.2709                 2.4105
 Frc consts  --      0.6787                 0.7057                 1.6454
 IR Inten    --      0.0486                 0.6021                 1.7854

                     22                     23                     24
                      A                      A                      A
 Frequencies --   1115.2569              1160.7084              1204.8850
 Red. masses --      3.7044                 1.4901                 1.8033
 Frc consts  --      2.7147                 1.1828                 1.5425
 IR Inten    --     89.6075                15.9447               330.8511

                     25                     26                     27
                      A                      A                      A
 Frequencies --   1272.3021              1307.0898              1366.2119
 Red. masses --      1.8477                 2.3904                 2.2287
 Frc consts  --      1.7623                 2.4062                 2.4510
 IR Inten    --      1.9433               107.4396                25.1616

                     28                     29                     30
                      A                      A                      A
 Frequencies --   1382.8437              1461.7981              1495.1892
 Red. masses --      2.9331                 3.0042                 3.0146
 Frc consts  --      3.3046                 3.7822                 3.9708
 IR Inten    --     45.0639               156.5416               194.5052

                     31                     32                     33
                      A                      A                      A
 Frequencies --   1506.2023              1628.2835              1648.0329
 Red. masses --      2.4862                 4.3374                 6.7403
 Frc consts  --      3.3231                 6.7755                10.7859
 IR Inten    --     17.6568                25.7143                 4.8622

                     34                     35                     36
                      A                      A                      A
 Frequencies --   1729.8474              3219.6555              3237.6524
 Red. masses --      7.2217                 1.0889                 1.0920
 Frc consts  --     12.7322                 6.6504                 6.7443
 IR Inten    --    332.6946                 6.8745                13.5912

                     37                     38                     39
                      A                      A                      A
 Frequencies --   3253.1476              3479.3181              3773.1056
 Red. masses --      1.0970                 1.0670                 1.0644
 Frc consts  --      6.8398                 7.6100                 8.9277
 IR Inten    --      3.9460               319.4165               113.4122

 - Thermochemistry -
 -------------------
 Temperature   298.150 Kelvin.  Pressure   1.00000 Atm.
 Atom     1 has atomic number  7 and mass  14.00307

 Molecular mass:   139.02694 amu.
 Principal axes and moments of inertia in atomic units:
                           1         2         3
     Eigenvalues --   767.393041433.414512200.80741
           X            1.00000   0.00224  -0.00002
           Y           -0.00224   1.00000  -0.00006
           Z            0.00002   0.00006   1.00000
 This molecule is an asymmetric top.
 Rotational symmetry number  1.
 Warning -- assumption of classical behavior for rotation
           may cause significant error
 Rotational temperatures (Kelvin)      0.11287     0.06042     0.03936
 Rotational constants (GHZ):           2.35178     1.25905     0.82004
 Zero-point vibrational energy     285511.7 (Joules/Mol)
                                   68.23893 (Kcal/Mol)
 Warning -- explicit consideration of  11 degrees of freedom as
           vibrations may cause significant error
 Vibrational temperatures:    116.15   191.15   353.05   354.20   526.26
          (Kelvin)            605.64   633.04   760.53   773.75   835.05
                              866.80   936.16   995.84  1090.76  1094.72
                             1108.14  1180.51  1266.64  1339.83  1396.74
                             1548.64  1604.60  1670.00  1733.56  1830.56
                             1880.61  1965.67  1989.60  2103.20  2151.24
                             2167.09  2342.73  2371.15  2488.86  4632.36
                             4658.25  4680.55  5005.96  5428.65

 Zero-point correction=                           0.108746 (Hartree/Particle)
 Thermal correction to Energy=                    0.116535
 Thermal correction to Enthalpy=                  0.117479
 Thermal correction to Gibbs Free Energy=         0.075897
 Sum of electronic and zero-point Energies=           -511.551374
 Sum of electronic and thermal Energies=              -511.543584
 Sum of electronic and thermal Enthalpies=            -511.542640
 Sum of electronic and thermal Free Energies=         -511.584223

                     E (Thermal)             CV                S
                      KCal/Mol        Cal/Mol-Kelvin    Cal/Mol-Kelvin
 Total                   73.127             30.013             87.518
 Electronic               0.000              0.000              0.000
 Translational            0.889              2.981             40.700
 Rotational               0.889              2.981             29.272
 Vibrational             71.350             24.051             17.546
 Vibration     1          0.600              1.962              3.873
 Vibration     2          0.613              1.921              2.904
 Vibration     3          0.660              1.770              1.764
 Vibration     4          0.661              1.769              1.758
 Vibration     5          0.739              1.543              1.097
 Vibration     6          0.783              1.425              0.889
 Vibration     7          0.800              1.383              0.827
 Vibration     8          0.884              1.187              0.590
 Vibration     9          0.893              1.166              0.570
 Vibration    10          0.937              1.074              0.485
 Vibration    11          0.961              1.027              0.445

 Optimization completed.
    -- Stationary point found.
 Normal termination of Gaussian 09 at Wed Dec 18 00:50:43 2024.
