 Gaussian 09, Revision E.01,
 Gaussian 09:  ES64L-G09RevE.01 30-Nov-2015

 -------------------------------------
 # opt freq b3lyp/6-31+g(d,p) em=gd3bj
 -------------------------------------

 ----------
 [No Title]
 ----------
 Symbolic Z-matrix:
 Charge =  0 Multiplicity = 1

 SCF Done:  E(RB3LYP) =  -512.148771199     A.U. after   14 cycles
 SCF Done:  E(RB3LYP) =  -512.149127750     A.U. after   11 cycles
 SCF Done:  E(RB3LYP) =  -512.149131463     A.U. after   11 cycles
 SCF Done:  E(RB3LYP) =  -512.149160752     A.U. after   11 cycles
 Optimization completed.
    -- Stationary point found.
 Normal termination of Gaussian 09 at Sun May 19 23:19:40 2024.

 ----------------------------------------------------------------------
 #N Geom=AllCheck Guess=TCheck SCRF=Check GenChk RB3LYP/6-31+G(d,p) Fre
 q
 ----------------------------------------------------------------------

 Structure from the checkpoint file:  "+b3lyp3HPA.chk"
 ----------
 [No Title]
 ----------
 Charge =  0 Multiplicity = 1

                         Standard orientation:
 ---------------------------------------------------------------------
 Center     Atomic      Atomic             Coordinates (Angstroms)
 Number     Number       Type             X           Y           Z
 ---------------------------------------------------------------------
      1          7           0       -0.440589   -1.451514   -0.000049
      2          6           0       -1.766138   -1.482373   -0.000001
      3          6           0       -2.554975   -0.316315    0.000057
      4          6           0       -1.934675    0.920441    0.000050
      5          6           0       -0.530502    0.973254   -0.000016
      6          6           0        0.175384   -0.255156   -0.000057
      7          6           0        1.651881   -0.223646   -0.000071
      8          8           0        2.298767    0.828336    0.000156
      9          8           0        2.253987   -1.416799   -0.000025
     10          8           0        0.065452    2.175423   -0.000067
     11          1           0       -2.229481   -2.465286    0.000002
     12          1           0       -3.637801   -0.392251    0.000100
     13          1           0       -2.492733    1.850452    0.000080
     14          1           0        3.211637   -1.247771    0.000082
     15          1           0        1.040994    2.022542   -0.000199
 ---------------------------------------------------------------------

 SCF Done:  E(RB3LYP) =  -512.149160752     A.U. after    1 cycles

 The electronic state is 1-A.
 Alpha  occ. eigenvalues --  -19.22586 -19.19861 -19.17723 -14.36068 -10.35331
 Alpha  occ. eigenvalues --  -10.28974 -10.25461 -10.24005 -10.22878 -10.22589
 Alpha  occ. eigenvalues --   -1.13941  -1.08819  -1.04305  -0.96747  -0.82536
 Alpha  occ. eigenvalues --   -0.79363  -0.70341  -0.65230  -0.64059  -0.56762
 Alpha  occ. eigenvalues --   -0.55699  -0.52188  -0.50542  -0.48570  -0.48436
 Alpha  occ. eigenvalues --   -0.43635  -0.43598  -0.42549  -0.41142  -0.40495
 Alpha  occ. eigenvalues --   -0.38541  -0.34893  -0.31938  -0.30566  -0.27689
 Alpha  occ. eigenvalues --   -0.25875
 Alpha virt. eigenvalues --   -0.08186  -0.03313  -0.00629   0.00358   0.02148
 Alpha virt. eigenvalues --    0.02319   0.02893   0.04603   0.04901   0.05289
 Alpha virt. eigenvalues --    0.07457   0.07732   0.08346   0.08953   0.09996

 Mulliken charges:
               1
     1  N   -0.210636
     2  C   -0.176177
     3  C    0.116606
     4  C   -0.006284
     5  C    0.062729
     6  C    0.014922
     7  C    0.528703
     8  O   -0.565419
     9  O   -0.427945
    10  O   -0.556080
    11  H    0.130958
    12  H    0.139774
    13  H    0.151202
    14  H    0.384339
    15  H    0.413307
 Sum of Mulliken charges =   0.00000

 Dipole moment (field-independent basis, Debye):
    X=             -1.3046    Y=             -0.4377    Z=             -0.0003  Tot=              1.3761
 Quadrupole moment (field-independent basis, Debye-Ang):
   XX=            -44.0361   YY=            -62.9669   ZZ=            -58.3719
   XY=             -2.3273   XZ=             -0.0010   YZ=             -0.0011

  Exact polarizability: 119.674   3.290  97.847  -0.001   0.001  46.875
 Approx polarizability: 182.420   8.596 170.822  -0.001   0.003  68.956

                      1                      2                      3
                      A                      A                      A
 Frequencies --     91.4068               139.0256               245.7728
 Red. masses --      8.7955                 6.0794                 6.4397
 Frc consts  --      0.0433                 0.0692                 0.2292
 IR Inten    --      1.2645                 2.8361                 2.7130

                      4                      5                      6
                      A                      A                      A
 Frequencies --    255.1393               365.9944               436.8120
 Red. masses --      4.9928                 7.5745                 3.8230
 Frc consts  --      0.1915                 0.5978                 0.4298
 IR Inten    --      1.4607                11.3757                 0.4504

                      7                      8                      9
                      A                      A                      A
 Frequencies --    442.6012               529.9810               552.0956
 Red. masses --      9.7383                 5.5658                 3.7626
 Frc consts  --      1.1240                 0.9211                 0.6757
 IR Inten    --      2.8423                 3.9314                 0.8014

                     10                     11                     12
                      A                      A                      A
 Frequencies --    580.3378               609.4937               651.9450
 Red. masses --      7.5656                 1.2461                 6.1970
 Frc consts  --      1.5013                 0.2727                 1.5519
 IR Inten    --      6.2491                76.0591                68.1229

                     13                     14                     15
                      A                      A                      A
 Frequencies --    727.4347               758.9246               798.4334
 Red. masses --      3.3746                 4.7383                 1.1086
 Frc consts  --      1.0521                 1.6079                 0.4164
 IR Inten    --     56.6367                23.8966               125.4295

                     16                     17                     18
                      A                      A                      A
 Frequencies --    815.1167               829.9829               879.3031
 Red. masses --      8.8527                 1.3769                 7.0249
 Frc consts  --      3.4655                 0.5588                 3.2001
 IR Inten    --     23.7791                 2.0537                 7.6038

                     19                     20                     21
                      A                      A                      A
 Frequencies --    940.8340               998.5289              1070.2054
 Red. masses --      1.3766                 1.3384                 2.3600
 Frc consts  --      0.7179                 0.7862                 1.5926
 IR Inten    --      0.0154                 0.8018                 2.7453

                     22                     23                     24
                      A                      A                      A
 Frequencies --   1113.8517              1155.1943              1196.3226
 Red. masses --      3.5018                 1.4571                 1.9093
 Frc consts  --      2.5597                 1.1457                 1.6100
 IR Inten    --     81.2972                 7.4472               365.3554

                     25                     26                     27
                      A                      A                      A
 Frequencies --   1269.2877              1301.8449              1355.9206
 Red. masses --      1.8376                 2.5925                 2.8330
 Frc consts  --      1.7443                 2.5887                 3.0687
 IR Inten    --      0.4970                81.4078                33.6098

                     28                     29                     30
                      A                      A                      A
 Frequencies --   1373.6285              1454.2338              1486.2122
 Red. masses --      2.1327                 3.4481                 2.7068
 Frc consts  --      2.3709                 4.2964                 3.5226
 IR Inten    --     51.3584               176.4499               193.3740

                     31                     32                     33
                      A                      A                      A
 Frequencies --   1501.5254              1618.9904              1643.5930
 Red. masses --      2.6282                 4.1158                 6.8769
 Frc consts  --      3.4912                 6.3561                10.9454
 IR Inten    --     15.5508                27.1610                 5.1189

                     34                     35                     36
                      A                      A                      A
 Frequencies --   1729.6164              3183.2715              3204.5164
 Red. masses --      7.3593                 1.0889                 1.0916
 Frc consts  --     12.9715                 6.5013                 6.6042
 IR Inten    --    361.3071                 9.1299                14.5790

                     37                     38                     39
                      A                      A                      A
 Frequencies --   3221.5662              3415.2250              3757.3744
 Red. masses --      1.0963                 1.0674                 1.0644
 Frc consts  --      6.7034                 7.3355                 8.8536
 IR Inten    --      3.7489               343.1531               108.9555

 - Thermochemistry -
 -------------------
 Temperature   298.150 Kelvin.  Pressure   1.00000 Atm.
 Atom     1 has atomic number  7 and mass  14.00307

 Molecular mass:   139.02694 amu.
 Principal axes and moments of inertia in atomic units:
                           1         2         3
     Eigenvalues --   764.873201434.575722199.44892
           X            1.00000   0.00215  -0.00000
           Y           -0.00215   1.00000  -0.00001
           Z            0.00000   0.00001   1.00000
 This molecule is an asymmetric top.
 Rotational symmetry number  1.
 Warning -- assumption of classical behavior for rotation
           may cause significant error
 Rotational temperatures (Kelvin)      0.11324     0.06038     0.03938
 Rotational constants (GHZ):           2.35953     1.25803     0.82054
 Zero-point vibrational energy     285318.6 (Joules/Mol)
                                   68.19278 (Kcal/Mol)
 Warning -- explicit consideration of  11 degrees of freedom as
           vibrations may cause significant error
 Vibrational temperatures:    131.51   200.03   353.61   367.09   526.58
          (Kelvin)            628.47   636.80   762.52   794.34   834.98
                              876.92   938.00  1046.62  1091.92  1148.77
                             1172.77  1194.16  1265.12  1353.65  1436.66
                             1539.78  1602.58  1662.06  1721.24  1826.22
                             1873.06  1950.86  1976.34  2092.32  2138.33
                             2160.36  2329.36  2364.76  2488.53  4580.01
                             4610.58  4635.11  4913.74  5406.02

 Zero-point correction=                           0.108672 (Hartree/Particle)
 Thermal correction to Energy=                    0.116342
 Thermal correction to Enthalpy=                  0.117286
 Thermal correction to Gibbs Free Energy=         0.076004
 Sum of electronic and zero-point Energies=           -512.040489
 Sum of electronic and thermal Energies=              -512.032819
 Sum of electronic and thermal Enthalpies=            -512.031875
 Sum of electronic and thermal Free Energies=         -512.073157

                     E (Thermal)             CV                S
                      KCal/Mol        Cal/Mol-Kelvin    Cal/Mol-Kelvin
 Total                   73.005             29.663             86.886
 Electronic               0.000              0.000              0.000
 Translational            0.889              2.981             40.700
 Rotational               0.889              2.981             29.269
 Vibrational             71.228             23.702             16.916
 Vibration     1          0.602              1.955              3.630
 Vibration     2          0.615              1.914              2.817
 Vibration     3          0.660              1.770              1.761
 Vibration     4          0.666              1.754              1.695
 Vibration     5          0.739              1.542              1.097
 Vibration     6          0.797              1.390              0.837
 Vibration     7          0.802              1.377              0.818
 Vibration     8          0.885              1.184              0.587
 Vibration     9          0.907              1.135              0.540
 Vibration    10          0.937              1.074              0.485
 Vibration    11          0.968              1.012              0.434

 Normal termination of Gaussian 09 at Sun May 19 23:20:41 2024.
