 Gaussian 09, Revision E.01,
 Gaussian 09:  ES64L-G09RevE.01 30-Nov-2015

 -------------------------------------
 # opt freq b3lyp/6-31+g(d,p) em=gd3bj
 -------------------------------------

 ----------
 [No Title]
 ----------
 Symbolic Z-matrix:
 Charge =  1 Multiplicity = 1

 SCF Done:  E(RB3LYP) =  -512.509877124     A.U. after   14 cycles
 SCF Done:  E(RB3LYP) =  -512.510225078     A.U. after   11 cycles
 SCF Done:  E(RB3LYP) =  -512.510235765     A.U. after   10 cycles
 SCF Done:  E(RB3LYP) =  -512.510239652     A.U. after    9 cycles
 SCF Done:  E(RB3LYP) =  -512.510238064     A.U. after    9 cycles
 SCF Done:  E(RB3LYP) =  -512.510240148     A.U. after    9 cycles
 Optimization completed.
    -- Stationary point found.
 Normal termination of Gaussian 09 at Sun May 19 23:37:16 2024.

 ----------------------------------------------------------------------
 #N Geom=AllCheck Guess=TCheck SCRF=Check GenChk RB3LYP/6-31+G(d,p) Fre
 q
 ----------------------------------------------------------------------

 Structure from the checkpoint file:  "+b3lyp3HPA.chk"
 ----------
 [No Title]
 ----------
 Charge =  1 Multiplicity = 1

                         Standard orientation:
 ---------------------------------------------------------------------
 Center     Atomic      Atomic             Coordinates (Angstroms)
 Number     Number       Type             X           Y           Z
 ---------------------------------------------------------------------
      1          7           0       -0.512696   -1.354825   -0.000041
      2          6           0       -1.845125   -1.417709   -0.000027
      3          6           0       -2.570131   -0.220761    0.000036
      4          6           0       -1.897124    0.987079    0.000083
      5          6           0       -0.480896    1.022782    0.000068
      6          6           0        0.206224   -0.199704    0.000004
      7          6           0        1.677396   -0.426709   -0.000024
      8          8           0        2.153955   -1.537241   -0.000136
      9          8           0        2.369634    0.726574   -0.000052
     10          8           0        0.097913    2.216885    0.000118
     11          1           0        0.055648   -2.207303   -0.000087
     12          1           0       -2.297385   -2.401390   -0.000066
     13          1           0       -3.653049   -0.255479    0.000048
     14          1           0       -2.429689    1.932510    0.000133
     15          1           0        3.328005    0.543176   -0.000125
     16          1           0        1.071266    2.152652    0.000109
 ---------------------------------------------------------------------

 SCF Done:  E(RB3LYP) =  -512.510240148     A.U. after    1 cycles

 The electronic state is 1-A.
 Alpha  occ. eigenvalues --  -19.40112 -19.37987 -19.34064 -14.63653 -10.52722
 Alpha  occ. eigenvalues --  -10.48279 -10.46097 -10.45771 -10.41595 -10.41392
 Alpha  occ. eigenvalues --   -1.30858  -1.27055  -1.22892  -1.20799  -1.02584
 Alpha  occ. eigenvalues --   -1.00341  -0.89802  -0.86699  -0.83975  -0.78606
 Alpha  occ. eigenvalues --   -0.75590  -0.72121  -0.70128  -0.67720  -0.67314
 Alpha  occ. eigenvalues --   -0.67104  -0.62558  -0.61406  -0.60463  -0.59807
 Alpha  occ. eigenvalues --   -0.59194  -0.55076  -0.51975  -0.49799  -0.48392
 Alpha  occ. eigenvalues --   -0.44936
 Alpha virt. eigenvalues --   -0.27834  -0.22686  -0.15229  -0.15199  -0.13646
 Alpha virt. eigenvalues --   -0.11451  -0.11046  -0.09587  -0.09023  -0.08501
 Alpha virt. eigenvalues --   -0.06223  -0.05454  -0.05361  -0.04706  -0.04331

 Mulliken charges:
               1
     1  N   -0.204010
     2  C   -0.150914
     3  C    0.149714
     4  C    0.001532
     5  C    0.381960
     6  C    0.088204
     7  C    0.373186
     8  O   -0.434835
     9  O   -0.573977
    10  O   -0.503404
    11  H    0.372032
    12  H    0.211681
    13  H    0.205109
    14  H    0.206728
    15  H    0.445141
    16  H    0.431852
 Sum of Mulliken charges =   1.00000

 Dipole moment (field-independent basis, Debye):
    X=             -2.6632    Y=             -1.1480    Z=              0.0000  Tot=              2.9001
 Quadrupole moment (field-independent basis, Debye-Ang):
   XX=            -25.5575   YY=            -44.9406   ZZ=            -56.2077
   XY=              9.7223   XZ=             -0.0003   YZ=              0.0002

  Exact polarizability: 110.833   1.358  94.308  -0.001   0.003  41.171
 Approx polarizability: 172.249   0.600 170.665  -0.002   0.006  60.833

                      1                      2                      3
                      A                      A                      A
 Frequencies --     95.3164               136.2580               221.8451
 Red. masses --     10.3504                 4.5541                 6.3681
 Frc consts  --      0.0554                 0.0498                 0.1847
 IR Inten    --      4.7166                 0.0204                 7.2049

                      4                      5                      6
                      A                      A                      A
 Frequencies --    245.9128               363.7064               412.2351
 Red. masses --      4.7970                 7.7716                 6.9339
 Frc consts  --      0.1709                 0.6057                 0.6943
 IR Inten    --      1.9985                 6.7244                13.8383

                      7                      8                      9
                      A                      A                      A
 Frequencies --    415.4653               545.7502               549.0815
 Red. masses --      3.3406                 2.9677                 5.9768
 Frc consts  --      0.3397                 0.5208                 1.0617
 IR Inten    --      9.9960                 6.5589                 2.3406

                     10                     11                     12
                      A                      A                      A
 Frequencies --    573.6341               587.5424               615.0152
 Red. masses --      6.6653                 1.3705                 1.1014
 Frc consts  --      1.2922                 0.2787                 0.2455
 IR Inten    --     14.0462               120.1901                61.8511

                     13                     14                     15
                      A                      A                      A
 Frequencies --    633.5331               676.0597               749.2354
 Red. masses --      5.1097                 3.0147                 4.6578
 Frc consts  --      1.2083                 0.8118                 1.5405
 IR Inten    --     33.2310               102.2196                12.3109

                     16                     17                     18
                      A                      A                      A
 Frequencies --    778.9618               807.0471               884.8972
 Red. masses --      9.4615                 1.3504                 5.9186
 Frc consts  --      3.3825                 0.5182                 2.7306
 IR Inten    --     16.0747                76.4228                19.1203

                     19                     20                     21
                      A                      A                      A
 Frequencies --    894.2047               973.9305              1019.7292
 Red. masses --      1.2613                 1.3103                 1.3228
 Frc consts  --      0.5942                 0.7323                 0.8104
 IR Inten    --      9.8715                11.9849                 0.0005

                     22                     23                     24
                      A                      A                      A
 Frequencies --   1071.9071              1123.0715              1156.2134
 Red. masses --      2.3994                 2.1638                 3.0992
 Frc consts  --      1.6243                 1.6080                 2.4410
 IR Inten    --     19.8460                14.8618               118.2488

                     25                     26                     27
                      A                      A                      A
 Frequencies --   1183.5479              1247.9575              1270.4248
 Red. masses --      1.2950                 1.3480                 1.4813
 Frc consts  --      1.0688                 1.2369                 1.4086
 IR Inten    --     75.3839                15.6375               246.4180

                     28                     29                     30
                      A                      A                      A
 Frequencies --   1326.6920              1369.3346              1397.2689
 Red. masses --      3.6684                 1.6871                 2.1798
 Frc consts  --      3.8042                 1.8638                 2.5074
 IR Inten    --    129.4936                55.3878                69.6264

                     31                     32                     33
                      A                      A                      A
 Frequencies --   1441.5367              1533.5189              1570.5741
 Red. masses --      4.1134                 2.9698                 2.4080
 Frc consts  --      5.0361                 4.1148                 3.4997
 IR Inten    --     25.8015                60.5953               237.3547

                     34                     35                     36
                      A                      A                      A
 Frequencies --   1631.5310              1677.0349              1828.7924
 Red. masses --      5.9408                 5.0416                10.4474
 Frc consts  --      9.3172                 8.3542                20.5866
 IR Inten    --     21.8978                22.0184               337.9492

                     37                     38                     39
                      A                      A                      A
 Frequencies --   3226.5076              3243.0611              3257.5346
 Red. masses --      1.0926                 1.0947                 1.0984
 Frc consts  --      6.7017                 6.7838                 6.8672
 IR Inten    --      5.5154                 8.0148                17.5213

                     40                     41                     42
                      A                      A                      A
 Frequencies --   3463.0759              3680.3749              3723.7121
 Red. masses --      1.0799                 1.0664                 1.0651
 Frc consts  --      7.6306                 8.5103                 8.7017
 IR Inten    --    186.1122               315.6598               188.6021

 - Thermochemistry -
 -------------------
 Temperature   298.150 Kelvin.  Pressure   1.00000 Atm.
 Atom     1 has atomic number  7 and mass  14.00307

 Molecular mass:   140.03477 amu.
 Principal axes and moments of inertia in atomic units:
                           1         2         3
     Eigenvalues --   791.017171447.445092238.46226
           X            0.99952   0.03101   0.00002
           Y           -0.03101   0.99952  -0.00005
           Z           -0.00003   0.00005   1.00000
 This molecule is an asymmetric top.
 Rotational symmetry number  1.
 Warning -- assumption of classical behavior for rotation
           may cause significant error
 Rotational temperatures (Kelvin)      0.10950     0.05984     0.03869
 Rotational constants (GHZ):           2.28154     1.24685     0.80624
 Zero-point vibrational energy     320617.3 (Joules/Mol)
                                   76.62938 (Kcal/Mol)
 Warning -- explicit consideration of  12 degrees of freedom as
           vibrations may cause significant error
 Vibrational temperatures:    137.14   196.04   319.19   353.81   523.29
          (Kelvin)            593.11   597.76   785.21   790.00   825.33
                              845.34   884.87   911.51   972.70  1077.98
                             1120.75  1161.16  1273.17  1286.56  1401.27
                             1467.16  1542.23  1615.85  1663.53  1702.86
                             1795.53  1827.86  1908.81  1970.16  2010.36
                             2074.05  2206.39  2259.70  2347.41  2412.88
                             2631.22  4642.22  4666.04  4686.86  4982.59
                             5295.23  5357.58

 Zero-point correction=                           0.122117 (Hartree/Particle)
 Thermal correction to Energy=                    0.130064
 Thermal correction to Enthalpy=                  0.131009
 Thermal correction to Gibbs Free Energy=         0.089258
 Sum of electronic and zero-point Energies=           -512.388123
 Sum of electronic and thermal Energies=              -512.380176
 Sum of electronic and thermal Enthalpies=            -512.379232
 Sum of electronic and thermal Free Energies=         -512.420983

                     E (Thermal)             CV                S
                      KCal/Mol        Cal/Mol-Kelvin    Cal/Mol-Kelvin
 Total                   81.617             31.008             87.872
 Electronic               0.000              0.000              0.000
 Translational            0.889              2.981             40.722
 Rotational               0.889              2.981             29.329
 Vibrational             79.839             25.046             17.822
 Vibration     1          0.603              1.953              3.548
 Vibration     2          0.614              1.917              2.856
 Vibration     3          0.648              1.808              1.944
 Vibration     4          0.660              1.770              1.760
 Vibration     5          0.737              1.547              1.106
 Vibration     6          0.776              1.444              0.919
 Vibration     7          0.779              1.437              0.908
 Vibration     8          0.901              1.149              0.553
 Vibration     9          0.904              1.142              0.546
 Vibration    10          0.930              1.088              0.497
 Vibration    11          0.945              1.058              0.472
 Vibration    12          0.975              1.000              0.425

 Optimization completed.
    -- Stationary point found.
 Normal termination of Gaussian 09 at Sun May 19 23:38:20 2024.
