 Gaussian 09, Revision E.01,
 Gaussian 09:  ES64L-G09RevE.01 30-Nov-2015

 -------------------------------------------------------
 # opt freq b3pw91/6-31+g(d,p) EmpiricalDispersion=GD3BJ
 -------------------------------------------------------

 ----------
 [No Title]
 ----------
 Symbolic Z-matrix:
 Charge =  0 Multiplicity = 1

 SCF Done:  E(RB3PW91) =  -511.948798826     A.U. after   14 cycles
 SCF Done:  E(RB3PW91) =  -511.948801986     A.U. after   11 cycles
 SCF Done:  E(RB3PW91) =  -511.948805143     A.U. after   10 cycles
 SCF Done:  E(RB3PW91) =  -511.948805783     A.U. after    9 cycles
 Optimization completed.
    -- Stationary point found.
 Normal termination of Gaussian 09 at Wed Dec 18 00:16:50 2024.

 ----------------------------------------------------------------------
 #N Geom=AllCheck Guess=TCheck SCRF=Check GenChk RB3PW91/6-31+G(d,p) Fr
 eq
 ----------------------------------------------------------------------

 Structure from the checkpoint file:  "B3PW91D3BJ3HPA.chk"
 ----------
 [No Title]
 ----------
 Charge =  0 Multiplicity = 1

                         Standard orientation:
 ---------------------------------------------------------------------
 Center     Atomic      Atomic             Coordinates (Angstroms)
 Number     Number       Type             X           Y           Z
 ---------------------------------------------------------------------
      1          7           0       -0.443031   -1.449058   -0.000051
      2          6           0       -1.765904   -1.475216    0.000002
      3          6           0       -2.549820   -0.308983    0.000061
      4          6           0       -1.927749    0.924501    0.000052
      5          6           0       -0.525314    0.973678   -0.000016
      6          6           0        0.172727   -0.256888   -0.000061
      7          6           0        1.645270   -0.226906   -0.000092
      8          8           0        2.290355    0.824347    0.000144
      9          8           0        2.245039   -1.415068   -0.000010
     10          8           0        0.077585    2.164842   -0.000065
     11          1           0       -2.232322   -2.457238    0.000006
     12          1           0       -3.633227   -0.381575    0.000108
     13          1           0       -2.484298    1.855829    0.000085
     14          1           0        3.200105   -1.242302    0.000104
     15          1           0        1.051870    1.994608   -0.000182
 ---------------------------------------------------------------------

 SCF Done:  E(RB3PW91) =  -511.948805783     A.U. after    1 cycles

 The electronic state is 1-A.
 Alpha  occ. eigenvalues --  -19.21573 -19.18739 -19.16668 -14.35031 -10.33759
 Alpha  occ. eigenvalues --  -10.27536 -10.23983 -10.22541 -10.21500 -10.21204
 Alpha  occ. eigenvalues --   -1.14613  -1.09399  -1.04743  -0.97263  -0.82878
 Alpha  occ. eigenvalues --   -0.79685  -0.70622  -0.65474  -0.64335  -0.56954
 Alpha  occ. eigenvalues --   -0.55928  -0.52488  -0.50669  -0.48804  -0.48606
 Alpha  occ. eigenvalues --   -0.43894  -0.43669  -0.42547  -0.41147  -0.40492
 Alpha  occ. eigenvalues --   -0.38791  -0.35058  -0.31990  -0.30772  -0.27610
 Alpha  occ. eigenvalues --   -0.25938
 Alpha virt. eigenvalues --   -0.08180  -0.03198   0.00566   0.01467   0.02317
 Alpha virt. eigenvalues --    0.03540   0.03972   0.05804   0.05951   0.06384
 Alpha virt. eigenvalues --    0.08635   0.08847   0.09451   0.10086   0.11148

 Mulliken charges:
               1
     1  N   -0.139322
     2  C   -0.235047
     3  C    0.103356
     4  C    0.015396
     5  C    0.006262
     6  C   -0.006335
     7  C    0.456358
     8  O   -0.548015
     9  O   -0.415297
    10  O   -0.531183
    11  H    0.150657
    12  H    0.166419
    13  H    0.176071
    14  H    0.387248
    15  H    0.413432
 Sum of Mulliken charges =  -0.00000

 Dipole moment (field-independent basis, Debye):
    X=             -1.2165    Y=             -0.4451    Z=             -0.0002  Tot=              1.2953
 Quadrupole moment (field-independent basis, Debye-Ang):
   XX=            -43.1041   YY=            -62.1287   ZZ=            -57.9918
   XY=             -2.4405   XZ=             -0.0009   YZ=             -0.0010

  Exact polarizability: 117.997   3.271  96.457  -0.001   0.001  45.698
 Approx polarizability: 180.148   8.626 168.717  -0.001   0.002  66.230

                      1                      2                      3
                      A                      A                      A
 Frequencies --     92.7430               138.4722               245.3627
 Red. masses --      8.5153                 6.1769                 6.3987
 Frc consts  --      0.0432                 0.0698                 0.2270
 IR Inten    --      1.4480                 2.8632                 2.8837

                      4                      5                      6
                      A                      A                      A
 Frequencies --    254.7071               366.0814               433.9917
 Red. masses --      4.9741                 7.4949                 3.8414
 Frc consts  --      0.1901                 0.5918                 0.4263
 IR Inten    --      1.6596                11.8424                 0.4494

                      7                      8                      9
                      A                      A                      A
 Frequencies --    444.7926               530.9043               550.9682
 Red. masses --      9.8217                 5.5586                 3.7583
 Frc consts  --      1.1449                 0.9231                 0.6722
 IR Inten    --      2.7320                 3.8872                 0.5219

                     10                     11                     12
                      A                      A                      A
 Frequencies --    578.9949               612.5869               652.0911
 Red. masses --      7.5109                 1.2499                 6.1263
 Frc consts  --      1.4835                 0.2764                 1.5348
 IR Inten    --      6.2031                74.6415                70.0456

                     13                     14                     15
                      A                      A                      A
 Frequencies --    730.1530               764.5866               815.6674
 Red. masses --      3.2998                 4.6157                 4.3433
 Frc consts  --      1.0365                 1.5898                 1.7025
 IR Inten    --     61.4657                26.4229                 1.3764

                     16                     17                     18
                      A                      A                      A
 Frequencies --    817.3377               837.0596               881.1004
 Red. masses --      1.4922                 1.1997                 7.0301
 Frc consts  --      0.5873                 0.4953                 3.2156
 IR Inten    --    127.3340                20.2904                 7.8227

                     19                     20                     21
                      A                      A                      A
 Frequencies --    939.6816               997.2220              1075.7269
 Red. masses --      1.3737                 1.3373                 2.2768
 Frc consts  --      0.7147                 0.7836                 1.5523
 IR Inten    --      0.0000                 0.8046                 1.8234

                     22                     23                     24
                      A                      A                      A
 Frequencies --   1120.0162              1157.7936              1202.8001
 Red. masses --      2.9900                 1.4788                 1.8345
 Frc consts  --      2.2099                 1.1680                 1.5637
 IR Inten    --     61.9524                 4.5057               354.2331

                     25                     26                     27
                      A                      A                      A
 Frequencies --   1275.6412              1317.6339              1366.9712
 Red. masses --      1.7752                 2.4845                 2.0924
 Frc consts  --      1.7020                 2.5414                 2.3036
 IR Inten    --      1.0924                94.8426                19.8591

                     28                     29                     30
                      A                      A                      A
 Frequencies --   1389.3612              1471.8372              1497.8381
 Red. masses --      2.9995                 3.2722                 3.1557
 Frc consts  --      3.4114                 4.1765                 4.1714
 IR Inten    --     52.5567               176.8069               219.1935

                     31                     32                     33
                      A                      A                      A
 Frequencies --   1511.4975              1632.3345              1659.3703
 Red. masses --      3.0233                 4.2937                 7.3910
 Frc consts  --      4.0695                 6.7407                11.9906
 IR Inten    --     22.0980                28.0070                 6.6443

                     34                     35                     36
                      A                      A                      A
 Frequencies --   1749.8638              3192.9513              3216.0470
 Red. masses --      7.5315                 1.0891                 1.0916
 Frc consts  --     13.5875                 6.5422                 6.6520
 IR Inten    --    359.1560                 9.2603                13.1680

                     37                     38                     39
                      A                      A                      A
 Frequencies --   3233.4402              3380.7632              3788.4638
 Red. masses --      1.0967                 1.0682                 1.0643
 Frc consts  --      6.7559                 7.1931                 9.0000
 IR Inten    --      3.0586               373.3254               113.9826

 - Thermochemistry -
 -------------------
 Temperature   298.150 Kelvin.  Pressure   1.00000 Atm.
 Atom     1 has atomic number  7 and mass  14.00307

 Molecular mass:   139.02694 amu.
 Principal axes and moments of inertia in atomic units:
                           1         2         3
     Eigenvalues --   760.038081426.352692186.39077
           X            1.00000   0.00203   0.00000
           Y           -0.00203   1.00000  -0.00001
           Z           -0.00000   0.00001   1.00000
 This molecule is an asymmetric top.
 Rotational symmetry number  1.
 Warning -- assumption of classical behavior for rotation
           may cause significant error
 Rotational temperatures (Kelvin)      0.11396     0.06072     0.03961
 Rotational constants (GHZ):           2.37454     1.26528     0.82544
 Zero-point vibrational energy     286654.3 (Joules/Mol)
                                   68.51202 (Kcal/Mol)
 Warning -- explicit consideration of  11 degrees of freedom as
           vibrations may cause significant error
 Vibrational temperatures:    133.44   199.23   353.02   366.47   526.71
          (Kelvin)            624.42   639.96   763.85   792.72   833.04
                              881.37   938.21  1050.53  1100.07  1173.56
                             1175.97  1204.34  1267.71  1351.99  1434.78
                             1547.73  1611.45  1665.80  1730.56  1835.36
                             1895.78  1966.76  1998.98  2117.64  2155.05
                             2174.70  2348.56  2387.46  2517.66  4593.94
                             4627.17  4652.19  4864.16  5450.75

 Zero-point correction=                           0.109181 (Hartree/Particle)
 Thermal correction to Energy=                    0.116834
 Thermal correction to Enthalpy=                  0.117779
 Thermal correction to Gibbs Free Energy=         0.076532
 Sum of electronic and zero-point Energies=           -511.839625
 Sum of electronic and thermal Energies=              -511.831971
 Sum of electronic and thermal Enthalpies=            -511.831027
 Sum of electronic and thermal Free Energies=         -511.872274

                     E (Thermal)             CV                S
                      KCal/Mol        Cal/Mol-Kelvin    Cal/Mol-Kelvin
 Total                   73.315             29.549             86.811
 Electronic               0.000              0.000              0.000
 Translational            0.889              2.981             40.700
 Rotational               0.889              2.981             29.251
 Vibrational             71.537             23.588             16.860
 Vibration     1          0.602              1.954              3.601
 Vibration     2          0.614              1.915              2.825
 Vibration     3          0.660              1.770              1.764
 Vibration     4          0.665              1.755              1.698
 Vibration     5          0.739              1.542              1.096
 Vibration     6          0.795              1.396              0.846
 Vibration     7          0.804              1.372              0.812
 Vibration     8          0.886              1.182              0.585
 Vibration     9          0.906              1.138              0.542
 Vibration    10          0.936              1.077              0.487
 Vibration    11          0.972              1.005              0.429

 Optimization completed.
    -- Stationary point found.
 Normal termination of Gaussian 09 at Wed Dec 18 00:17:51 2024.
