 Gaussian 09, Revision E.01,
 Gaussian 09:  ES64L-G09RevE.01 30-Nov-2015

 -------------------------------------------------------
 # opt freq b3pw91/6-31+g(d,p) EmpiricalDispersion=GD3BJ
 -------------------------------------------------------

 ----------
 [No Title]
 ----------
 Symbolic Z-matrix:
 Charge =  1 Multiplicity = 1

 SCF Done:  E(RB3PW91) =  -512.311684330     A.U. after   14 cycles
 SCF Done:  E(RB3PW91) =  -512.311692202     A.U. after   10 cycles
 SCF Done:  E(RB3PW91) =  -512.311695400     A.U. after    9 cycles
 Optimization completed.
    -- Stationary point found.
 Normal termination of Gaussian 09 at Wed Dec 18 00:27:41 2024.

 ----------------------------------------------------------------------
 #N Geom=AllCheck Guess=TCheck SCRF=Check GenChk RB3PW91/6-31+G(d,p) Fr
 eq
 ----------------------------------------------------------------------

 Structure from the checkpoint file:  "B3PW91D3BJ3HPA2.chk"
 ----------
 [No Title]
 ----------
 Charge =  1 Multiplicity = 1

                         Standard orientation:
 ---------------------------------------------------------------------
 Center     Atomic      Atomic             Coordinates (Angstroms)
 Number     Number       Type             X           Y           Z
 ---------------------------------------------------------------------
      1          7           0       -0.506719   -1.349617   -0.000006
      2          6           0       -1.835241   -1.418158   -0.000041
      3          6           0       -2.562829   -0.225471   -0.000014
      4          6           0       -1.895155    0.982917    0.000051
      5          6           0       -0.481515    1.023791    0.000089
      6          6           0        0.205617   -0.196500    0.000060
      7          6           0        1.673785   -0.423235    0.000094
      8          8           0        2.146306   -1.533396   -0.000179
      9          8           0        2.362507    0.725434   -0.000125
     10          8           0        0.094659    2.213073    0.000157
     11          1           0        0.067907   -2.197678   -0.000020
     12          1           0       -2.283905   -2.403884   -0.000088
     13          1           0       -3.645987   -0.263512   -0.000043
     14          1           0       -2.431833    1.926511    0.000074
     15          1           0        3.318842    0.541596   -0.000327
     16          1           0        1.066264    2.143334    0.000191
 ---------------------------------------------------------------------

 SCF Done:  E(RB3PW91) =  -512.311695400     A.U. after    1 cycles

 The electronic state is 1-A.
 Alpha  occ. eigenvalues --  -19.39189 -19.37040 -19.32947 -14.62706 -10.51173
 Alpha  occ. eigenvalues --  -10.46907 -10.44700 -10.44329 -10.40235 -10.40048
 Alpha  occ. eigenvalues --   -1.31558  -1.27760  -1.23481  -1.21324  -1.03004
 Alpha  occ. eigenvalues --   -1.00767  -0.90155  -0.87024  -0.84358  -0.78936
 Alpha  occ. eigenvalues --   -0.75892  -0.72263  -0.70282  -0.67969  -0.67518
 Alpha  occ. eigenvalues --   -0.67440  -0.62928  -0.61449  -0.60590  -0.59789
 Alpha  occ. eigenvalues --   -0.59540  -0.55093  -0.52181  -0.50039  -0.48471
 Alpha  occ. eigenvalues --   -0.45085
 Alpha virt. eigenvalues --   -0.27841  -0.22682  -0.15109  -0.14031  -0.12506
 Alpha virt. eigenvalues --   -0.10224  -0.09907  -0.08613  -0.07803  -0.07312
 Alpha virt. eigenvalues --   -0.05109  -0.05013  -0.04226  -0.03546  -0.03150

 Mulliken charges:
               1
     1  N   -0.143827
     2  C   -0.223678
     3  C    0.133148
     4  C    0.023329
     5  C    0.348148
     6  C    0.049743
     7  C    0.311448
     8  O   -0.419904
     9  O   -0.565031
    10  O   -0.480434
    11  H    0.384679
    12  H    0.232941
    13  H    0.232663
    14  H    0.231772
    15  H    0.450931
    16  H    0.434071
 Sum of Mulliken charges =   1.00000

 Dipole moment (field-independent basis, Debye):
    X=             -2.5484    Y=             -1.1173    Z=              0.0001  Tot=              2.7826
 Quadrupole moment (field-independent basis, Debye-Ang):
   XX=            -24.8756   YY=            -44.1725   ZZ=            -55.9181
   XY=              9.6572   XZ=             -0.0002   YZ=             -0.0001

  Exact polarizability: 109.351   1.403  93.235  -0.001   0.003  40.369
 Approx polarizability: 170.075   0.799 168.774  -0.001   0.007  58.829

                      1                      2                      3
                      A                      A                      A
 Frequencies --     95.8384               135.4814               217.9167
 Red. masses --     10.3972                 4.5382                 6.3279
 Frc consts  --      0.0563                 0.0491                 0.1770
 IR Inten    --      4.5813                 0.0111                 7.4385

                      4                      5                      6
                      A                      A                      A
 Frequencies --    245.2413               362.4900               412.9902
 Red. masses --      4.7706                 7.6717                 6.9084
 Frc consts  --      0.1690                 0.5939                 0.6942
 IR Inten    --      2.3450                 7.0770                14.0397

                      7                      8                      9
                      A                      A                      A
 Frequencies --    413.4778               545.0499               550.4899
 Red. masses --      3.3443                 2.9500                 5.9974
 Frc consts  --      0.3369                 0.5163                 1.0708
 IR Inten    --     10.2131                 5.1331                 2.5902

                     10                     11                     12
                      A                      A                      A
 Frequencies --    573.2228               589.2836               621.2632
 Red. masses --      6.6074                 1.3741                 1.1038
 Frc consts  --      1.2792                 0.2811                 0.2510
 IR Inten    --     13.4682               118.5370                65.9443

                     13                     14                     15
                      A                      A                      A
 Frequencies --    632.7361               677.7158               754.2592
 Red. masses --      5.0940                 3.0051                 4.5517
 Frc consts  --      1.2016                 0.8132                 1.5257
 IR Inten    --     33.5637               101.1672                13.8592

                     16                     17                     18
                      A                      A                      A
 Frequencies --    780.5550               807.3895               887.0732
 Red. masses --      9.6526                 1.3565                 5.8962
 Frc consts  --      3.4650                 0.5210                 2.7336
 IR Inten    --     20.5024                74.8752                18.6804

                     19                     20                     21
                      A                      A                      A
 Frequencies --    897.0927               975.1102              1017.5031
 Red. masses --      1.2649                 1.3030                 1.3177
 Frc consts  --      0.5998                 0.7299                 0.8038
 IR Inten    --     10.4466                13.5711                 0.0121

                     22                     23                     24
                      A                      A                      A
 Frequencies --   1076.8269              1125.1636              1167.2932
 Red. masses --      2.3018                 2.0944                 2.6264
 Frc consts  --      1.5726                 1.5622                 2.1085
 IR Inten    --     18.3819                13.8493                90.3825

                     25                     26                     27
                      A                      A                      A
 Frequencies --   1185.5243              1249.9523              1272.2591
 Red. masses --      1.3316                 1.3034                 1.4814
 Frc consts  --      1.1027                 1.1998                 1.4127
 IR Inten    --     85.1719                20.8955               234.8215

                     28                     29                     30
                      A                      A                      A
 Frequencies --   1345.8711              1372.2815              1404.2423
 Red. masses --      3.8367                 1.5008                 2.3443
 Frc consts  --      4.0946                 1.6652                 2.7236
 IR Inten    --    146.2398                54.7729                78.4059

                     31                     32                     33
                      A                      A                      A
 Frequencies --   1460.9696              1542.6313              1576.9937
 Red. masses --      5.2973                 3.0549                 2.6765
 Frc consts  --      6.6618                 4.2833                 3.9217
 IR Inten    --     14.3179                41.6479               264.4253

                     34                     35                     36
                      A                      A                      A
 Frequencies --   1646.8726              1692.9028              1851.7045
 Red. masses --      6.2704                 5.5572                10.6246
 Frc consts  --     10.0200                 9.3836                21.4637
 IR Inten    --     26.7599                29.3781               335.4916

                     37                     38                     39
                      A                      A                      A
 Frequencies --   3236.6362              3254.0878              3268.0477
 Red. masses --      1.0927                 1.0948                 1.0989
 Frc consts  --      6.7445                 6.8304                 6.9150
 IR Inten    --      6.1015                 8.7053                18.9917

                     40                     41                     42
                      A                      A                      A
 Frequencies --   3474.0718              3700.5749              3754.0038
 Red. masses --      1.0799                 1.0664                 1.0651
 Frc consts  --      7.6793                 8.6045                 8.8436
 IR Inten    --    189.1034               313.5171               202.4939

 - Thermochemistry -
 -------------------
 Temperature   298.150 Kelvin.  Pressure   1.00000 Atm.
 Atom     1 has atomic number  7 and mass  14.00307

 Molecular mass:   140.03477 amu.
 Principal axes and moments of inertia in atomic units:
                           1         2         3
     Eigenvalues --   787.956441438.687102226.64353
           X            0.99952   0.03104   0.00002
           Y           -0.03104   0.99952  -0.00005
           Z           -0.00002   0.00005   1.00000
 This molecule is an asymmetric top.
 Rotational symmetry number  1.
 Warning -- assumption of classical behavior for rotation
           may cause significant error
 Rotational temperatures (Kelvin)      0.10992     0.06020     0.03890
 Rotational constants (GHZ):           2.29041     1.25444     0.81052
 Zero-point vibrational energy     322101.1 (Joules/Mol)
                                   76.98400 (Kcal/Mol)
 Warning -- explicit consideration of  11 degrees of freedom as
           vibrations may cause significant error
 Vibrational temperatures:    137.89   194.93   313.53   352.85   521.54
          (Kelvin)            594.20   594.90   784.20   792.03   824.74
                              847.85   893.86   910.36   975.08  1085.21
                             1123.04  1161.65  1276.30  1290.71  1402.96
                             1463.96  1549.31  1618.86  1679.47  1705.70
                             1798.40  1830.49  1936.41  1974.40  2020.39
                             2102.01  2219.50  2268.94  2369.48  2435.71
                             2664.19  4656.79  4681.90  4701.99  4998.41
                             5324.30  5401.17

 Zero-point correction=                           0.122682 (Hartree/Particle)
 Thermal correction to Energy=                    0.130627
 Thermal correction to Enthalpy=                  0.131571
 Thermal correction to Gibbs Free Energy=         0.089821
 Sum of electronic and zero-point Energies=           -512.189014
 Sum of electronic and thermal Energies=              -512.181068
 Sum of electronic and thermal Enthalpies=            -512.180124
 Sum of electronic and thermal Free Energies=         -512.221874

                     E (Thermal)             CV                S
                      KCal/Mol        Cal/Mol-Kelvin    Cal/Mol-Kelvin
 Total                   81.970             30.937             87.870
 Electronic               0.000              0.000              0.000
 Translational            0.889              2.981             40.722
 Rotational               0.889              2.981             29.314
 Vibrational             80.192             24.976             17.834
 Vibration     1          0.603              1.952              3.537
 Vibration     2          0.613              1.918              2.867
 Vibration     3          0.646              1.814              1.976
 Vibration     4          0.660              1.771              1.765
 Vibration     5          0.736              1.550              1.111
 Vibration     6          0.777              1.442              0.916
 Vibration     7          0.777              1.441              0.914
 Vibration     8          0.900              1.151              0.555
 Vibration     9          0.906              1.139              0.543
 Vibration    10          0.929              1.089              0.498
 Vibration    11          0.947              1.055              0.468

 Optimization completed.
    -- Stationary point found.
 Normal termination of Gaussian 09 at Wed Dec 18 00:28:46 2024.
