 Gaussian 09, Revision E.01,
 Gaussian 09:  ES64L-G09RevE.01 30-Nov-2015

 -----------------------------------------
 # opt freq cam-b3lyp/6-31+g(d,p) em=gd3bj
 -----------------------------------------

 ----------
 [No Title]
 ----------
 Symbolic Z-matrix:
 Charge =  1 Multiplicity = 1

 SCF Done:  E(RCAM-B3LYP) =  -512.269182968     A.U. after   15 cycles
 SCF Done:  E(RCAM-B3LYP) =  -512.269503526     A.U. after   12 cycles
 SCF Done:  E(RCAM-B3LYP) =  -512.269513758     A.U. after   10 cycles
 SCF Done:  E(RCAM-B3LYP) =  -512.269514592     A.U. after   10 cycles
 SCF Done:  E(RCAM-B3LYP) =  -512.269514286     A.U. after    9 cycles
 SCF Done:  E(RCAM-B3LYP) =  -512.269514917     A.U. after    9 cycles
 Optimization completed.
    -- Stationary point found.
 Normal termination of Gaussian 09 at Sun Apr 28 15:48:44 2024.

 ----------------------------------------------------------------------
 #N Geom=AllCheck Guess=TCheck SCRF=Check GenChk RCAM-B3LYP/6-31+G(d,p)
  Freq
 ----------------------------------------------------------------------

 Structure from the checkpoint file:  "b3lyp3HPA.chk"
 ----------
 [No Title]
 ----------
 Charge =  1 Multiplicity = 1

                         Standard orientation:
 ---------------------------------------------------------------------
 Center     Atomic      Atomic             Coordinates (Angstroms)
 Number     Number       Type             X           Y           Z
 ---------------------------------------------------------------------
      1          7           0        0.511769   -1.349381    0.000060
      2          6           0        1.837300   -1.412147    0.000011
      3          6           0        2.560924   -0.218871   -0.000073
      4          6           0        1.889923    0.982980   -0.000104
      5          6           0        0.477770    1.018936   -0.000052
      6          6           0       -0.202257   -0.196736    0.000033
      7          6           0       -1.672053   -0.424013    0.000101
      8          8           0       -2.141477   -1.531723    0.000134
      9          8           0       -2.364571    0.718908   -0.000027
     10          8           0       -0.098498    2.209789   -0.000075
     11          1           0       -0.058266   -2.200690    0.000123
     12          1           0        2.290833   -2.395281    0.000040
     13          1           0        3.643546   -0.253336   -0.000113
     14          1           0        2.420544    1.929380   -0.000166
     15          1           0       -3.321942    0.535796   -0.000037
     16          1           0       -1.070370    2.153108   -0.000027
 ---------------------------------------------------------------------

 SCF Done:  E(RCAM-B3LYP) =  -512.269514917     A.U. after    1 cycles

 The electronic state is 1-A.
 Alpha  occ. eigenvalues --  -19.47415 -19.44896 -19.41326 -14.71115 -10.60372
 Alpha  occ. eigenvalues --  -10.55547 -10.53244 -10.53185 -10.48851 -10.48555
 Alpha  occ. eigenvalues --   -1.39439  -1.35076  -1.31318  -1.29151  -1.10891
 Alpha  occ. eigenvalues --   -1.08535  -0.97521  -0.94340  -0.91478  -0.85891
 Alpha  occ. eigenvalues --   -0.82813  -0.79145  -0.77057  -0.74878  -0.74713
 Alpha  occ. eigenvalues --   -0.74219  -0.69858  -0.68099  -0.67004  -0.66211
 Alpha  occ. eigenvalues --   -0.65982  -0.61338  -0.58445  -0.55535  -0.54957
 Alpha  occ. eigenvalues --   -0.50144
 Alpha virt. eigenvalues --   -0.23099  -0.17656  -0.11860  -0.10071  -0.09351
 Alpha virt. eigenvalues --   -0.08304  -0.07688  -0.06436  -0.06232  -0.05361
 Alpha virt. eigenvalues --   -0.02998  -0.02995  -0.01894  -0.01606  -0.00434

 Mulliken charges:
               1
     1  N   -0.223485
     2  C   -0.131712
     3  C    0.120394
     4  C   -0.005221
     5  C    0.397941
     6  C    0.085349
     7  C    0.388589
     8  O   -0.442921
     9  O   -0.583440
    10  O   -0.518861
    11  H    0.379510
    12  H    0.220271
    13  H    0.213077
    14  H    0.215766
    15  H    0.451015
    16  H    0.433728
 Sum of Mulliken charges =   1.00000

 Dipole moment (field-independent basis, Debye):
    X=              2.6547    Y=             -1.2496    Z=             -0.0000  Tot=              2.9341
 Quadrupole moment (field-independent basis, Debye-Ang):
   XX=            -25.5194   YY=            -45.1999   ZZ=            -56.2985
   XY=             -9.8053   XZ=             -0.0003   YZ=             -0.0002

  Exact polarizability: 106.644  -1.264  92.382  -0.002  -0.002  40.774
 Approx polarizability: 123.552  -0.902 126.049  -0.002  -0.003  51.987

                      1                      2                      3
                      A                      A                      A
 Frequencies --     96.8189               139.8231               224.0200
 Red. masses --     10.2529                 4.5406                 6.3594
 Frc consts  --      0.0566                 0.0523                 0.1880
 IR Inten    --      5.1936                 0.0329                 7.4812

                      4                      5                      6
                      A                      A                      A
 Frequencies --    249.5623               367.1459               415.2052
 Red. masses --      4.7795                 7.7010                 6.8941
 Frc consts  --      0.1754                 0.6116                 0.7003
 IR Inten    --      1.9543                 7.2037                14.6508

                      7                      8                      9
                      A                      A                      A
 Frequencies --    421.2160               554.5247               555.8980
 Red. masses --      3.3107                 2.9167                 5.9794
 Frc consts  --      0.3461                 0.5284                 1.0887
 IR Inten    --     10.7491                 6.7640                 2.7734

                     10                     11                     12
                      A                      A                      A
 Frequencies --    579.2817               593.2032               605.8542
 Red. masses --      6.6300                 1.2904                 1.1672
 Frc consts  --      1.3108                 0.2675                 0.2524
 IR Inten    --     13.2792               170.2683                15.3904

                     13                     14                     15
                      A                      A                      A
 Frequencies --    640.2681               687.4045               761.3162
 Red. masses --      5.0411                 2.9612                 4.5030
 Frc consts  --      1.2176                 0.8244                 1.5378
 IR Inten    --     36.2211               106.7909                14.5458

                     16                     17                     18
                      A                      A                      A
 Frequencies --    793.5994               821.7910               894.3101
 Red. masses --      9.3004                 1.3514                 5.8567
 Frc consts  --      3.4511                 0.5377                 2.7598
 IR Inten    --     20.1189                78.9616                21.3056

                     19                     20                     21
                      A                      A                      A
 Frequencies --    913.3824              1000.4244              1040.4855
 Red. masses --      1.2705                 1.3136                 1.3318
 Frc consts  --      0.6245                 0.7746                 0.8495
 IR Inten    --     10.4632                12.3497                 0.0197

                     22                     23                     24
                      A                      A                      A
 Frequencies --   1085.5615              1134.0237              1178.2975
 Red. masses --      2.3153                 2.0804                 1.9143
 Frc consts  --      1.6076                 1.5763                 1.5660
 IR Inten    --     15.9944                18.8221                53.1176

                     25                     26                     27
                      A                      A                      A
 Frequencies --   1193.4707              1259.1060              1278.9638
 Red. masses --      1.6421                 1.3151                 1.4474
 Frc consts  --      1.3781                 1.2283                 1.3950
 IR Inten    --    124.1053                19.7848               252.3851

                     28                     29                     30
                      A                      A                      A
 Frequencies --   1337.7330              1380.2024              1414.6847
 Red. masses --      4.0707                 1.5096                 2.4668
 Frc consts  --      4.2920                 1.6944                 2.9087
 IR Inten    --    147.2292                47.1846                93.9928

                     31                     32                     33
                      A                      A                      A
 Frequencies --   1459.4496              1557.4664              1593.2146
 Red. masses --      4.3773                 3.2538                 2.5736
 Frc consts  --      5.4933                 4.6503                 3.8490
 IR Inten    --     21.4712                78.9777               247.9069

                     34                     35                     36
                      A                      A                      A
 Frequencies --   1668.8044              1717.3775              1875.0460
 Red. masses --      6.5051                 5.5279                10.8210
 Frc consts  --     10.6738                 9.6060                22.4152
 IR Inten    --     29.6624                22.3116               366.1590

                     37                     38                     39
                      A                      A                      A
 Frequencies --   3245.2934              3262.2137              3274.6208
 Red. masses --      1.0935                 1.0955                 1.0996
 Frc consts  --      6.7854                 6.8688                 6.9473
 IR Inten    --      7.1914                 9.7784                21.4632

                     40                     41                     42
                      A                      A                      A
 Frequencies --   3482.1176              3727.4481              3755.5276
 Red. masses --      1.0804                 1.0665                 1.0650
 Frc consts  --      7.7183                 8.7304                 8.8501
 IR Inten    --    206.6875               364.4610               181.8153

 - Thermochemistry -
 -------------------
 Temperature   298.150 Kelvin.  Pressure   1.00000 Atm.
 Atom     1 has atomic number  7 and mass  14.00307

 Molecular mass:   140.03477 amu.
 Principal axes and moments of inertia in atomic units:
                           1         2         3
     Eigenvalues --   785.072221436.910262221.98248
           X            0.99952  -0.03096   0.00003
           Y            0.03096   0.99952   0.00005
           Z           -0.00003  -0.00005   1.00000
 This molecule is an asymmetric top.
 Rotational symmetry number  1.
 Warning -- assumption of classical behavior for rotation
           may cause significant error
 Rotational temperatures (Kelvin)      0.11033     0.06028     0.03898
 Rotational constants (GHZ):           2.29882     1.25599     0.81222
 Zero-point vibrational energy     324404.3 (Joules/Mol)
                                   77.53448 (Kcal/Mol)
 Warning -- explicit consideration of  12 degrees of freedom as
           vibrations may cause significant error
 Vibrational temperatures:    139.30   201.17   322.31   359.06   528.24
          (Kelvin)            597.39   606.04   797.84   799.81   833.46
                              853.49   871.69   921.20   989.02  1095.36
                             1141.81  1182.37  1286.71  1314.15  1439.39
                             1497.02  1561.88  1631.61  1695.31  1717.14
                             1811.57  1840.14  1924.70  1985.80  2035.41
                             2099.82  2240.84  2292.28  2401.03  2470.92
                             2697.77  4669.25  4693.59  4711.44  5009.98
                             5362.96  5403.36

 Zero-point correction=                           0.123559 (Hartree/Particle)
 Thermal correction to Energy=                    0.131423
 Thermal correction to Enthalpy=                  0.132367
 Thermal correction to Gibbs Free Energy=         0.090780
 Sum of electronic and zero-point Energies=           -512.145956
 Sum of electronic and thermal Energies=              -512.138092
 Sum of electronic and thermal Enthalpies=            -512.137147
 Sum of electronic and thermal Free Energies=         -512.178735

                     E (Thermal)             CV                S
                      KCal/Mol        Cal/Mol-Kelvin    Cal/Mol-Kelvin
 Total                   82.469             30.632             87.528
 Electronic               0.000              0.000              0.000
 Translational            0.889              2.981             40.722
 Rotational               0.889              2.981             29.307
 Vibrational             80.692             24.671             17.499
 Vibration     1          0.603              1.951              3.517
 Vibration     2          0.615              1.913              2.806
 Vibration     3          0.649              1.804              1.926
 Vibration     4          0.662              1.763              1.734
 Vibration     5          0.740              1.540              1.092
 Vibration     6          0.779              1.437              0.908
 Vibration     7          0.784              1.424              0.888
 Vibration     8          0.910              1.130              0.535
 Vibration     9          0.911              1.127              0.532
 Vibration    10          0.936              1.076              0.487
 Vibration    11          0.951              1.046              0.461
 Vibration    12          0.964              1.019              0.440

 Optimization completed.
    -- Stationary point found.
 Normal termination of Gaussian 09 at Sun Apr 28 15:50:10 2024.
