 Gaussian 09, Revision E.01,
 Gaussian 09:  ES64L-G09RevE.01 30-Nov-2015

 -----------------------------------------
 # opt freq cam-b3lyp/6-31+g(d,p) em=gd3bj
 -----------------------------------------

 ----------
 [No Title]
 ----------
 Symbolic Z-matrix:
 Charge =  0 Multiplicity = 1

 SCF Done:  E(RCAM-B3LYP) =  -511.911463387     A.U. after   16 cycles
 SCF Done:  E(RCAM-B3LYP) =  -511.911806469     A.U. after   12 cycles
 SCF Done:  E(RCAM-B3LYP) =  -511.911831229     A.U. after   11 cycles
 SCF Done:  E(RCAM-B3LYP) =  -511.911843866     A.U. after   11 cycles
 SCF Done:  E(RCAM-B3LYP) =  -511.911845739     A.U. after   10 cycles
 SCF Done:  E(RCAM-B3LYP) =  -511.911845476     A.U. after   10 cycles
 SCF Done:  E(RCAM-B3LYP) =  -511.911846057     A.U. after    9 cycles
 Optimization completed.
    -- Stationary point found.
 Normal termination of Gaussian 09 at Sun Apr 28 15:31:40 2024.

 ----------------------------------------------------------------------
 #N Geom=AllCheck Guess=TCheck SCRF=Check GenChk RCAM-B3LYP/6-31+G(d,p)
  Freq
 ----------------------------------------------------------------------

 Structure from the checkpoint file:  "cam3HPA.chk"
 ----------
 [No Title]
 ----------
 Charge =  0 Multiplicity = 1

                         Standard orientation:
 ---------------------------------------------------------------------
 Center     Atomic      Atomic             Coordinates (Angstroms)
 Number     Number       Type             X           Y           Z
 ---------------------------------------------------------------------
      1          7           0        0.441602   -1.443440   -0.000037
      2          6           0        1.760639   -1.476769   -0.000044
      3          6           0        2.545543   -0.313948   -0.000021
      4          6           0        1.927378    0.916953    0.000001
      5          6           0        0.527868    0.968851   -0.000000
      6          6           0       -0.171930   -0.252322   -0.000013
      7          6           0       -1.647546   -0.224418    0.000036
      8          8           0       -2.292125    0.821377    0.000119
      9          8           0       -2.245333   -1.410435   -0.000027
     10          8           0       -0.066867    2.166555   -0.000012
     11          1           0        2.223497   -2.459157   -0.000063
     12          1           0        3.627653   -0.389981   -0.000027
     13          1           0        2.483636    1.847511    0.000010
     14          1           0       -3.202274   -1.245915    0.000009
     15          1           0       -1.040829    2.021557   -0.000070
 ---------------------------------------------------------------------

 SCF Done:  E(RCAM-B3LYP) =  -511.911846057     A.U. after    1 cycles

 The electronic state is 1-A.
 Alpha  occ. eigenvalues --  -19.29914 -19.26842 -19.25000 -14.43331 -10.43013
 Alpha  occ. eigenvalues --  -10.36228 -10.32568 -10.31159 -10.30040 -10.29718
 Alpha  occ. eigenvalues --   -1.22569  -1.16934  -1.12476  -1.05294  -0.90744
 Alpha  occ. eigenvalues --   -0.87476  -0.78044  -0.72819  -0.71508  -0.63859
 Alpha  occ. eigenvalues --   -0.62997  -0.59422  -0.57480  -0.56044  -0.55512
 Alpha  occ. eigenvalues --   -0.50779  -0.50265  -0.49117  -0.47674  -0.46967
 Alpha  occ. eigenvalues --   -0.45308  -0.41416  -0.38458  -0.36131  -0.33872
 Alpha  occ. eigenvalues --   -0.31024
 Alpha virt. eigenvalues --   -0.03382   0.01646   0.02395   0.03217   0.05152
 Alpha virt. eigenvalues --    0.05646   0.06978   0.07412   0.07735   0.07985
 Alpha virt. eigenvalues --    0.09875   0.10290   0.10998   0.11533   0.12769

 Mulliken charges:
               1
     1  N   -0.227024
     2  C   -0.169187
     3  C    0.097087
     4  C   -0.019893
     5  C    0.070256
     6  C    0.043856
     7  C    0.529630
     8  O   -0.571246
     9  O   -0.436956
    10  O   -0.570176
    11  H    0.137928
    12  H    0.148159
    13  H    0.160019
    14  H    0.391263
    15  H    0.416285
 Sum of Mulliken charges =  -0.00000

 Dipole moment (field-independent basis, Debye):
    X=              1.2675    Y=             -0.5003    Z=             -0.0002  Tot=              1.3627
 Quadrupole moment (field-independent basis, Debye-Ang):
   XX=            -43.7754   YY=            -63.1768   ZZ=            -58.4361
   XY=              2.3668   XZ=              0.0004   YZ=             -0.0006

  Exact polarizability: 114.587  -3.391  95.529  -0.001   0.001  46.242
 Approx polarizability: 131.050  -6.353 126.860  -0.001   0.002  58.101

                      1                      2                      3
                      A                      A                      A
 Frequencies --     90.5052               142.3079               248.5977
 Red. masses --      8.9861                 5.9823                 6.4309
 Frc consts  --      0.0434                 0.0714                 0.2342
 IR Inten    --      1.1974                 3.2119                 2.8387

                      4                      5                      6
                      A                      A                      A
 Frequencies --    260.1132               369.4280               444.5228
 Red. masses --      4.9657                 7.5543                 3.7790
 Frc consts  --      0.1979                 0.6074                 0.4400
 IR Inten    --      1.4222                11.4417                 0.5333

                      7                      8                      9
                      A                      A                      A
 Frequencies --    446.1674               535.6641               562.6839
 Red. masses --      9.6873                 5.5386                 3.6953
 Frc consts  --      1.1362                 0.9363                 0.6893
 IR Inten    --      3.1718                 4.0832                 1.2845

                     10                     11                     12
                      A                      A                      A
 Frequencies --    586.0052               618.1156               660.3858
 Red. masses --      7.5206                 1.2584                 6.0633
 Frc consts  --      1.5216                 0.2833                 1.5580
 IR Inten    --      6.3015                77.0691                73.4073

                     13                     14                     15
                      A                      A                      A
 Frequencies --    740.3909               771.9916               793.9398
 Red. masses --      3.2083                 4.5720                 1.0801
 Frc consts  --      1.0362                 1.6054                 0.4011
 IR Inten    --     56.9924                28.6575               133.0362

                     16                     17                     18
                      A                      A                      A
 Frequencies --    833.8928               842.9969               890.1598
 Red. masses --      9.1756                 1.4268                 6.9663
 Frc consts  --      3.7593                 0.5974                 3.2523
 IR Inten    --     20.1460                11.0586                 8.8899

                     19                     20                     21
                      A                      A                      A
 Frequencies --    962.2317              1023.3983              1084.4366
 Red. masses --      1.3797                 1.3564                 2.3164
 Frc consts  --      0.7527                 0.8370                 1.6050
 IR Inten    --      0.1081                 0.7165                 4.0075

                     22                     23                     24
                      A                      A                      A
 Frequencies --   1132.6585              1164.6553              1209.2829
 Red. masses --      2.7655                 1.4899                 1.9920
 Frc consts  --      2.0904                 1.1907                 1.7163
 IR Inten    --     54.2796                 0.6643               388.6517

                     25                     26                     27
                      A                      A                      A
 Frequencies --   1283.6513              1313.7406              1371.6043
 Red. masses --      1.7720                 2.7370                 3.4194
 Frc consts  --      1.7203                 2.7832                 3.7901
 IR Inten    --      3.1250                60.4463                66.4934

                     28                     29                     30
                      A                      A                      A
 Frequencies --   1380.8996              1480.4941              1513.4606
 Red. masses --      1.6009                 3.2834                 3.2329
 Frc consts  --      1.7986                 4.2402                 4.3630
 IR Inten    --     49.2166               179.0706               223.5536

                     31                     32                     33
                      A                      A                      A
 Frequencies --   1528.2073              1656.2457              1685.6498
 Red. masses --      3.0598                 4.7502                 7.4459
 Frc consts  --      4.2102                 7.6774                12.4653
 IR Inten    --     12.4380                22.3596                 5.6357

                     34                     35                     36
                      A                      A                      A
 Frequencies --   1775.3808              3209.0300              3229.6848
 Red. masses --      8.1083                 1.0899                 1.0921
 Frc consts  --     15.0578                 6.6125                 6.7116
 IR Inten    --    392.2361                 7.2777                 9.7602

                     37                     38                     39
                      A                      A                      A
 Frequencies --   3245.0796              3476.9459              3797.2172
 Red. masses --      1.0976                 1.0673                 1.0644
 Frc consts  --      6.8100                 7.6021                 9.0426
 IR Inten    --      2.1705               362.9426               128.7590

 - Thermochemistry -
 -------------------
 Temperature   298.150 Kelvin.  Pressure   1.00000 Atm.
 Atom     1 has atomic number  7 and mass  14.00307

 Molecular mass:   139.02694 amu.
 Principal axes and moments of inertia in atomic units:
                           1         2         3
     Eigenvalues --   758.174201425.042982183.21718
           X            1.00000  -0.00216   0.00002
           Y            0.00216   1.00000  -0.00002
           Z           -0.00002   0.00002   1.00000
 This molecule is an asymmetric top.
 Rotational symmetry number  1.
 Warning -- assumption of classical behavior for rotation
           may cause significant error
 Rotational temperatures (Kelvin)      0.11424     0.06078     0.03967
 Rotational constants (GHZ):           2.38038     1.26645     0.82664
 Zero-point vibrational energy     289267.9 (Joules/Mol)
                                   69.13670 (Kcal/Mol)
 Warning -- explicit consideration of  11 degrees of freedom as
           vibrations may cause significant error
 Vibrational temperatures:    130.22   204.75   357.68   374.24   531.52
          (Kelvin)            639.57   641.93   770.70   809.58   843.13
                              889.33   950.15  1065.26  1110.72  1142.30
                             1199.78  1212.88  1280.74  1384.44  1472.44
                             1560.26  1629.64  1675.68  1739.89  1846.89
                             1890.18  1973.43  1986.80  2130.10  2177.53
                             2198.75  2382.97  2425.27  2554.37  4617.07
                             4646.79  4668.94  5002.54  5463.34

 Zero-point correction=                           0.110176 (Hartree/Particle)
 Thermal correction to Energy=                    0.117760
 Thermal correction to Enthalpy=                  0.118704
 Thermal correction to Gibbs Free Energy=         0.077573
 Sum of electronic and zero-point Energies=           -511.801670
 Sum of electronic and thermal Energies=              -511.794086
 Sum of electronic and thermal Enthalpies=            -511.793142
 Sum of electronic and thermal Free Energies=         -511.834273

                     E (Thermal)             CV                S
                      KCal/Mol        Cal/Mol-Kelvin    Cal/Mol-Kelvin
 Total                   73.896             29.271             86.569
 Electronic               0.000              0.000              0.000
 Translational            0.889              2.981             40.700
 Rotational               0.889              2.981             29.246
 Vibrational             72.118             23.309             16.623
 Vibration     1          0.602              1.956              3.649
 Vibration     2          0.616              1.911              2.773
 Vibration     3          0.662              1.765              1.741
 Vibration     4          0.668              1.746              1.661
 Vibration     5          0.742              1.535              1.082
 Vibration     6          0.804              1.373              0.813
 Vibration     7          0.805              1.369              0.807
 Vibration     8          0.891              1.171              0.575
 Vibration     9          0.918              1.112              0.519
 Vibration    10          0.943              1.062              0.474
 Vibration    11          0.978              0.994              0.420

 Optimization completed.
    -- Stationary point found.
 Normal termination of Gaussian 09 at Sun Apr 28 15:33:04 2024.
