 Gaussian 09, Revision E.01,
 Gaussian 09:  ES64L-G09RevE.01 30-Nov-2015

 --------------------------------------
 # opt freq pbepbe/6-31+g(d,p) em=gd3bj
 --------------------------------------

 ----------
 [No Title]
 ----------
 Symbolic Z-matrix:
 Charge =  0 Multiplicity = 1

 SCF Done:  E(RPBE-PBE) =  -511.569851559     A.U. after   15 cycles
 SCF Done:  E(RPBE-PBE) =  -511.570877638     A.U. after   13 cycles
 SCF Done:  E(RPBE-PBE) =  -511.570936668     A.U. after   12 cycles
 SCF Done:  E(RPBE-PBE) =  -511.570960693     A.U. after   12 cycles
 SCF Done:  E(RPBE-PBE) =  -511.570968951     A.U. after   11 cycles
 SCF Done:  E(RPBE-PBE) =  -511.570968456     A.U. after   10 cycles
 SCF Done:  E(RPBE-PBE) =  -511.570971426     A.U. after   10 cycles
 Optimization completed.
    -- Stationary point found.
 Normal termination of Gaussian 09 at Thu Jun 20 11:59:15 2024.

 ----------------------------------------------------------------------
 #N Geom=AllCheck Guess=TCheck SCRF=Check GenChk RPBEPBE/6-31+G(d,p) Fr
 eq
 ----------------------------------------------------------------------

 Structure from the checkpoint file:  "pbe3HPAgd3.chk"
 ----------
 [No Title]
 ----------
 Charge =  0 Multiplicity = 1

                         Standard orientation:
 ---------------------------------------------------------------------
 Center     Atomic      Atomic             Coordinates (Angstroms)
 Number     Number       Type             X           Y           Z
 ---------------------------------------------------------------------
      1          7           0        0.449525   -1.465116   -0.000091
      2          6           0        1.784089   -1.479053   -0.000068
      3          6           0        2.567779   -0.302377    0.000011
      4          6           0        1.937520    0.937192    0.000034
      5          6           0        0.525988    0.980456   -0.000026
      6          6           0       -0.173711   -0.264341   -0.000058
      7          6           0       -1.649043   -0.231398    0.000066
      8          8           0       -2.300393    0.834424    0.000413
      9          8           0       -2.261044   -1.430071   -0.000125
     10          8           0       -0.090439    2.174989   -0.000128
     11          1           0        2.259533   -2.465962   -0.000093
     12          1           0        3.659633   -0.371413    0.000033
     13          1           0        2.494421    1.877618    0.000057
     14          1           0       -3.223394   -1.235930    0.000022
     15          1           0       -1.077598    1.973884   -0.000405
 ---------------------------------------------------------------------

 SCF Done:  E(RPBE-PBE) =  -511.570971426     A.U. after    1 cycles

 The electronic state is 1-A.
 Alpha  occ. eigenvalues --  -18.84988 -18.82262 -18.80291 -14.02852 -10.05456
 Alpha  occ. eigenvalues --   -9.99769  -9.96512  -9.95006  -9.94011  -9.93785
 Alpha  occ. eigenvalues --   -1.04198  -0.99474  -0.94981  -0.87953  -0.74638
 Alpha  occ. eigenvalues --   -0.71700  -0.63437  -0.58612  -0.57573  -0.50754
 Alpha  occ. eigenvalues --   -0.49771  -0.46357  -0.44799  -0.43023  -0.42821
 Alpha  occ. eigenvalues --   -0.38486  -0.38240  -0.37248  -0.35799  -0.35252
 Alpha  occ. eigenvalues --   -0.33893  -0.30139  -0.27345  -0.26968  -0.22950
 Alpha  occ. eigenvalues --   -0.22751
 Alpha virt. eigenvalues --   -0.10881  -0.06150  -0.02110  -0.01444  -0.00792
 Alpha virt. eigenvalues --    0.01062   0.01838   0.03598   0.03837   0.04241
 Alpha virt. eigenvalues --    0.06493   0.06552   0.07412   0.07878   0.08712

 Mulliken charges:
               1
     1  N   -0.127672
     2  C   -0.255549
     3  C    0.148230
     4  C   -0.083506
     5  C    0.085495
     6  C   -0.022629
     7  C    0.399140
     8  O   -0.515225
     9  O   -0.377094
    10  O   -0.492064
    11  H    0.145611
    12  H    0.154678
    13  H    0.165477
    14  H    0.376472
    15  H    0.398636
 Sum of Mulliken charges =  -0.00000

 Dipole moment (field-independent basis, Debye):
    X=              1.1370    Y=             -0.3606    Z=             -0.0007  Tot=              1.1928
 Quadrupole moment (field-independent basis, Debye-Ang):
   XX=            -43.8521   YY=            -62.6876   ZZ=            -58.5604
   XY=              2.4333   XZ=              0.0019   YZ=             -0.0022

  Exact polarizability: 127.617  -2.667 102.428  -0.001   0.002  47.921
 Approx polarizability: 249.231  -9.707 228.016  -0.003   0.009  78.155

                      1                      2                      3
                      A                      A                      A
 Frequencies --     94.9278               134.6715               239.6252
 Red. masses --      7.8605                 6.5197                 6.3423
 Frc consts  --      0.0417                 0.0697                 0.2146
 IR Inten    --      1.6289                 2.4395                 2.9769

                      4                      5                      6
                      A                      A                      A
 Frequencies --    244.6266               357.5273               417.3973
 Red. masses --      5.0018                 7.5123                 3.8792
 Frc consts  --      0.1764                 0.5658                 0.3982
 IR Inten    --      1.7121                12.1516                 0.3999

                      7                      8                      9
                      A                      A                      A
 Frequencies --    434.9194               513.8705               528.9791
 Red. masses --     10.0891                 5.5253                 3.7564
 Frc consts  --      1.1244                 0.8596                 0.6193
 IR Inten    --      2.0341                 3.5711                 0.1763

                     10                     11                     12
                      A                      A                      A
 Frequencies --    560.0681               596.7449               629.0043
 Red. masses --      7.5435                 1.2547                 6.1450
 Frc consts  --      1.3941                 0.2632                 1.4324
 IR Inten    --      5.9667                68.0607                64.2245

                     13                     14                     15
                      A                      A                      A
 Frequencies --    703.9482               737.3968               781.9410
 Red. masses --      3.2643                 4.7411                 9.5011
 Frc consts  --      0.9531                 1.5189                 3.4227
 IR Inten    --     61.6738                19.9866                 8.9130

                     16                     17                     18
                      A                      A                      A
 Frequencies --    791.3631               852.0055               853.0725
 Red. masses --      1.4540                 1.0686                 7.1382
 Frc consts  --      0.5365                 0.4570                 3.0606
 IR Inten    --     50.3018                64.6302                 6.3550

                     19                     20                     21
                      A                      A                      A
 Frequencies --    900.7431               953.5062              1042.8559
 Red. masses --      1.3685                 1.3288                 2.2486
 Frc consts  --      0.6542                 0.7118                 1.4409
 IR Inten    --      0.9514                 0.9299                 1.2388

                     22                     23                     24
                      A                      A                      A
 Frequencies --   1078.6105              1118.7780              1162.4991
 Red. masses --      3.6473                 1.4383                 1.7306
 Frc consts  --      2.5000                 1.0607                 1.3779
 IR Inten    --     91.4648                18.7257               289.8692

                     25                     26                     27
                      A                      A                      A
 Frequencies --   1234.6898              1281.3694              1323.2235
 Red. masses --      1.8294                 2.4274                 1.9958
 Frc consts  --      1.6431                 2.3482                 2.0589
 IR Inten    --      0.1145                96.5478                23.1764

                     28                     29                     30
                      A                      A                      A
 Frequencies --   1361.2410              1421.1036              1446.2648
 Red. masses --      4.2014                 3.6137                 2.9015
 Frc consts  --      4.5869                 4.2999                 3.5757
 IR Inten    --     32.2349               151.4068               177.6807

                     31                     32                     33
                      A                      A                      A
 Frequencies --   1454.8774              1574.5052              1593.8696
 Red. masses --      2.6910                 3.8862                 7.3196
 Frc consts  --      3.3559                 5.6763                10.9558
 IR Inten    --     47.8942                39.6165                 4.3833

                     34                     35                     36
                      A                      A                      A
 Frequencies --   1667.8847              3109.2430              3114.7282
 Red. masses --      6.3038                 1.0878                 1.0705
 Frc consts  --     10.3320                 6.1958                 6.1190
 IR Inten    --    294.1906                12.5906               397.4531

                     37                     38                     39
                      A                      A                      A
 Frequencies --   3133.9017              3153.2225              3638.0023
 Red. masses --      1.0910                 1.0957                 1.0639
 Frc consts  --      6.3130                 6.4185                 8.2964
 IR Inten    --      7.4567                 4.3737                88.8948

 - Thermochemistry -
 -------------------
 Temperature   298.150 Kelvin.  Pressure   1.00000 Atm.
 Atom     1 has atomic number  7 and mass  14.00307

 Molecular mass:   139.02694 amu.
 Principal axes and moments of inertia in atomic units:
                           1         2         3
     Eigenvalues --   770.500751444.465282214.96601
           X            1.00000  -0.00205   0.00003
           Y            0.00205   1.00000  -0.00003
           Z           -0.00003   0.00003   1.00000
 This molecule is an asymmetric top.
 Rotational symmetry number  1.
 Warning -- assumption of classical behavior for rotation
           may cause significant error
 Rotational temperatures (Kelvin)      0.11241     0.05996     0.03910
 Rotational constants (GHZ):           2.34230     1.24942     0.81479
 Zero-point vibrational energy     276559.9 (Joules/Mol)
                                   66.09941 (Kcal/Mol)
 Warning -- explicit consideration of  11 degrees of freedom as
           vibrations may cause significant error
 Vibrational temperatures:    136.58   193.76   344.77   351.96   514.40
          (Kelvin)            600.54   625.75   739.34   761.08   805.81
                              858.58   905.00  1012.82  1060.95  1125.04
                             1138.59  1225.84  1227.38  1295.97  1371.88
                             1500.44  1551.88  1609.67  1672.57  1776.44
                             1843.60  1903.82  1958.52  2044.65  2080.85
                             2093.24  2265.36  2293.22  2399.71  4473.50
                             4481.39  4508.98  4536.78  5234.27

 Zero-point correction=                           0.105336 (Hartree/Particle)
 Thermal correction to Energy=                    0.113185
 Thermal correction to Enthalpy=                  0.114129
 Thermal correction to Gibbs Free Energy=         0.072557
 Sum of electronic and zero-point Energies=           -511.465635
 Sum of electronic and thermal Energies=              -511.457787
 Sum of electronic and thermal Enthalpies=            -511.456842
 Sum of electronic and thermal Free Energies=         -511.498414

                     E (Thermal)             CV                S
                      KCal/Mol        Cal/Mol-Kelvin    Cal/Mol-Kelvin
 Total                   71.025             30.451             87.495
 Electronic               0.000              0.000              0.000
 Translational            0.889              2.981             40.700
 Rotational               0.889              2.981             29.290
 Vibrational             69.247             24.489             17.504
 Vibration     1          0.603              1.953              3.556
 Vibration     2          0.613              1.919              2.878
 Vibration     3          0.657              1.780              1.806
 Vibration     4          0.660              1.772              1.769
 Vibration     5          0.733              1.560              1.133
 Vibration     6          0.780              1.432              0.901
 Vibration     7          0.796              1.394              0.843
 Vibration     8          0.869              1.219              0.624
 Vibration     9          0.884              1.186              0.589
 Vibration    10          0.916              1.118              0.524
 Vibration    11          0.955              1.039              0.455

 Optimization completed.
    -- Stationary point found.
 Normal termination of Gaussian 09 at Thu Jun 20 12:00:14 2024.
