 Gaussian 09, Revision E.01,
 Gaussian 09:  ES64L-G09RevE.01 30-Nov-2015

 --------------------------------------
 # opt freq pbepbe/6-31+g(d,p) em=gd3bj
 --------------------------------------

 ----------
 [No Title]
 ----------
 Symbolic Z-matrix:
 Charge =  1 Multiplicity = 1

 SCF Done:  E(RPBE-PBE) =  -511.928982305     A.U. after   15 cycles
 SCF Done:  E(RPBE-PBE) =  -511.929897627     A.U. after   12 cycles
 SCF Done:  E(RPBE-PBE) =  -511.929919224     A.U. after   11 cycles
 SCF Done:  E(RPBE-PBE) =  -511.929920899     A.U. after   10 cycles
 SCF Done:  E(RPBE-PBE) =  -511.929921697     A.U. after    9 cycles
 Optimization completed.
    -- Stationary point found.
 Normal termination of Gaussian 09 at Thu Jun 20 14:20:33 2024.

 ----------------------------------------------------------------------
 #N Geom=AllCheck Guess=TCheck SCRF=Check GenChk RPBEPBE/6-31+G(d,p) Fr
 eq
 ----------------------------------------------------------------------

 Structure from the checkpoint file:  "pbe3HPAyanggd3.chk"
 ----------
 [No Title]
 ----------
 Charge =  1 Multiplicity = 1

                         Standard orientation:
 ---------------------------------------------------------------------
 Center     Atomic      Atomic             Coordinates (Angstroms)
 Number     Number       Type             X           Y           Z
 ---------------------------------------------------------------------
      1          7           0        0.510068   -1.360235   -0.000003
      2          6           0        1.850420   -1.427309    0.000024
      3          6           0        2.579540   -0.226263    0.000019
      4          6           0        1.907841    0.990725   -0.000013
      5          6           0        0.486203    1.030249   -0.000038
      6          6           0       -0.209377   -0.200600   -0.000034
      7          6           0       -1.682113   -0.428548   -0.000069
      8          8           0       -2.168289   -1.546720    0.000078
      9          8           0       -2.371334    0.739853    0.000068
     10          8           0       -0.097528    2.227004   -0.000077
     11          1           0       -0.071799   -2.214593   -0.000008
     12          1           0        2.301783   -2.420413    0.000045
     13          1           0        3.670727   -0.264153    0.000039
     14          1           0        2.448725    1.941203   -0.000019
     15          1           0       -3.337336    0.550003    0.000177
     16          1           0       -1.080448    2.138974   -0.000108
 ---------------------------------------------------------------------

 SCF Done:  E(RPBE-PBE) =  -511.929921697     A.U. after    1 cycles

 The electronic state is 1-A.
 Alpha  occ. eigenvalues --  -19.02528 -19.00656 -18.96365 -14.30146 -10.22764
 Alpha  occ. eigenvalues --  -10.18996 -10.17020 -10.16350 -10.12523 -10.12426
 Alpha  occ. eigenvalues --   -1.21012  -1.17854  -1.13590  -1.11581  -0.94507
 Alpha  occ. eigenvalues --   -0.92530  -0.82811  -0.79861  -0.77472  -0.72434
 Alpha  occ. eigenvalues --   -0.69534  -0.66106  -0.64354  -0.61825  -0.61694
 Alpha  occ. eigenvalues --   -0.61430  -0.57213  -0.55859  -0.55027  -0.54478
 Alpha  occ. eigenvalues --   -0.54256  -0.49906  -0.47329  -0.46242  -0.43263
 Alpha  occ. eigenvalues --   -0.41666
 Alpha virt. eigenvalues --   -0.30212  -0.25479  -0.18940  -0.16886  -0.15561
 Alpha virt. eigenvalues --   -0.12886  -0.12476  -0.11303  -0.10483  -0.09889
 Alpha virt. eigenvalues --   -0.09180  -0.07718  -0.06422  -0.06300  -0.05393

 Mulliken charges:
               1
     1  N   -0.125537
     2  C   -0.231154
     3  C    0.179043
     4  C   -0.047251
     5  C    0.381282
     6  C    0.049250
     7  C    0.265201
     8  O   -0.392051
     9  O   -0.528635
    10  O   -0.442011
    11  H    0.368845
    12  H    0.222074
    13  H    0.218539
    14  H    0.218641
    15  H    0.440936
    16  H    0.422827
 Sum of Mulliken charges =   1.00000

 Dipole moment (field-independent basis, Debye):
    X=              2.4260    Y=             -1.0270    Z=             -0.0001  Tot=              2.6344
 Quadrupole moment (field-independent basis, Debye-Ang):
   XX=            -25.1720   YY=            -44.2358   ZZ=            -56.3754
   XY=             -9.4865   XZ=             -0.0001   YZ=              0.0000

  Exact polarizability: 117.088  -1.690  98.128  -0.000  -0.001  41.963
 Approx polarizability: 235.211  -0.037 228.966  -0.001  -0.004  68.267

                      1                      2                      3
                      A                      A                      A
 Frequencies --     95.2654               131.0227               211.2529
 Red. masses --     10.4979                 4.5385                 6.3090
 Frc consts  --      0.0561                 0.0459                 0.1659
 IR Inten    --      3.9126                 0.0010                 7.2742

                      4                      5                      6
                      A                      A                      A
 Frequencies --    237.4257               351.8963               401.0769
 Red. masses --      4.7832                 7.7064                 3.3692
 Frc consts  --      0.1589                 0.5623                 0.3193
 IR Inten    --      2.6145                 6.8976                 9.6148

                      7                      8                      9
                      A                      A                      A
 Frequencies --    401.8463               526.7669               532.3026
 Red. masses --      6.9836                 3.0204                 5.9795
 Frc consts  --      0.6644                 0.4938                 0.9982
 IR Inten    --     13.1152                 3.8768                 2.2647

                     10                     11                     12
                      A                      A                      A
 Frequencies --    554.9732               574.1898               610.3246
 Red. masses --      6.5403                 1.3879                 5.0863
 Frc consts  --      1.1868                 0.2696                 1.1163
 IR Inten    --     14.2372                98.1581                28.3644

                     13                     14                     15
                      A                      A                      A
 Frequencies --    634.1378               654.1764               726.6530
 Red. masses --      1.0931                 2.9782                 4.6953
 Frc consts  --      0.2590                 0.7509                 1.4607
 IR Inten    --     82.3482                92.2823                 9.7591

                     16                     17                     18
                      A                      A                      A
 Frequencies --    749.0029               777.4945               860.6929
 Red. masses --      9.2094                 1.3674                 5.9766
 Frc consts  --      3.0440                 0.4870                 2.6086
 IR Inten    --      8.6441                68.4205                15.9113

                     19                     20                     21
                      A                      A                      A
 Frequencies --    863.4757               928.6772               976.4299
 Red. masses --      1.2619                 1.2952                 1.3145
 Frc consts  --      0.5543                 0.6582                 0.7384
 IR Inten    --     10.4556                13.6988                 0.0000

                     22                     23                     24
                      A                      A                      A
 Frequencies --   1044.2231              1090.5661              1114.8108
 Red. masses --      2.3344                 2.1068                 3.2820
 Frc consts  --      1.4997                 1.4763                 2.4032
 IR Inten    --     25.6551                14.7184               126.6973

                     25                     26                     27
                      A                      A                      A
 Frequencies --   1149.2648              1209.5004              1235.2656
 Red. masses --      1.2243                 1.3041                 1.4932
 Frc consts  --      0.9527                 1.1241                 1.3424
 IR Inten    --     48.0844                15.6895               211.6184

                     28                     29                     30
                      A                      A                      A
 Frequencies --   1304.2563              1330.4939              1356.0116
 Red. masses --      3.5704                 1.6427                 2.0297
 Frc consts  --      3.5785                 1.7133                 2.1989
 IR Inten    --    126.6663                61.6257                44.2482

                     31                     32                     33
                      A                      A                      A
 Frequencies --   1424.5312              1490.0426              1522.0660
 Red. masses --      6.0832                 2.8788                 2.6882
 Frc consts  --      7.2732                 3.7658                 3.6692
 IR Inten    --     15.7921                21.9555               243.6913

                     34                     35                     36
                      A                      A                      A
 Frequencies --   1587.6094              1627.7548              1770.3329
 Red. masses --      5.9606                 5.6571                10.2317
 Frc consts  --      8.8517                 8.8313                18.8934
 IR Inten    --     19.2285                29.3924               291.1464

                     37                     38                     39
                      A                      A                      A
 Frequencies --   3156.7373              3175.0431              3189.4116
 Red. masses --      1.0921                 1.0940                 1.0981
 Frc consts  --      6.4120                 6.4981                 6.5814
 IR Inten    --      6.1740                 8.2269                19.2357

                     40                     41                     42
                      A                      A                      A
 Frequencies --   3360.0844              3522.9540              3614.3884
 Red. masses --      1.0794                 1.0663                 1.0649
 Frc consts  --      7.1801                 7.7975                 8.1967
 IR Inten    --    165.9323               276.3689               188.7330

 - Thermochemistry -
 -------------------
 Temperature   298.150 Kelvin.  Pressure   1.00000 Atm.
 Atom     1 has atomic number  7 and mass  14.00307

 Molecular mass:   140.03477 amu.
 Principal axes and moments of inertia in atomic units:
                           1         2         3
     Eigenvalues --   799.820691458.101972257.92266
           X            0.99952  -0.03109   0.00001
           Y            0.03109   0.99952   0.00002
           Z           -0.00001  -0.00002   1.00000
 This molecule is an asymmetric top.
 Rotational symmetry number  1.
 Warning -- assumption of classical behavior for rotation
           may cause significant error
 Rotational temperatures (Kelvin)      0.10829     0.05940     0.03836
 Rotational constants (GHZ):           2.25643     1.23773     0.79929
 Zero-point vibrational energy     311474.3 (Joules/Mol)
                                   74.44414 (Kcal/Mol)
 Warning -- explicit consideration of  12 degrees of freedom as
           vibrations may cause significant error
 Vibrational temperatures:    137.07   188.51   303.95   341.60   506.30
          (Kelvin)            577.06   578.17   757.90   765.86   798.48
                              826.13   878.12   912.38   941.21  1045.49
                             1077.65  1118.64  1238.34  1242.35  1336.16
                             1404.86  1502.40  1569.08  1603.96  1653.53
                             1740.20  1777.27  1876.53  1914.28  1951.00
                             2049.58  2143.84  2189.91  2284.21  2341.97
                             2547.11  4541.84  4568.17  4588.85  4834.41
                             5068.74  5200.29

 Zero-point correction=                           0.118634 (Hartree/Particle)
 Thermal correction to Energy=                    0.126788
 Thermal correction to Enthalpy=                  0.127732
 Thermal correction to Gibbs Free Energy=         0.085612
 Sum of electronic and zero-point Energies=           -511.811287
 Sum of electronic and thermal Energies=              -511.803134
 Sum of electronic and thermal Enthalpies=            -511.802190
 Sum of electronic and thermal Free Energies=         -511.844310

                     E (Thermal)             CV                S
                      KCal/Mol        Cal/Mol-Kelvin    Cal/Mol-Kelvin
 Total                   79.561             31.890             88.649
 Electronic               0.000              0.000              0.000
 Translational            0.889              2.981             40.722
 Rotational               0.889              2.981             29.356
 Vibrational             77.783             25.929             18.572
 Vibration     1          0.603              1.953              3.549
 Vibration     2          0.612              1.922              2.931
 Vibration     3          0.643              1.824              2.033
 Vibration     4          0.656              1.783              1.822
 Vibration     5          0.728              1.571              1.158
 Vibration     6          0.767              1.468              0.959
 Vibration     7          0.767              1.466              0.956
 Vibration     8          0.882              1.191              0.594
 Vibration     9          0.887              1.179              0.582
 Vibration    10          0.910              1.129              0.534
 Vibration    11          0.930              1.087              0.496
 Vibration    12          0.969              1.010              0.432

 Optimization completed.
    -- Stationary point found.
 Normal termination of Gaussian 09 at Thu Jun 20 14:21:35 2024.
