 Gaussian 09, Revision E.01,
 Gaussian 09:  ES64L-G09RevE.01 30-Nov-2015

 -----------------------------
 # opt freq m062x/6-311+g(d,p)
 -----------------------------

 ----------
 [No Title]
 ----------
 Symbolic Z-matrix:
 Charge =  0 Multiplicity = 1

 SCF Done:  E(RM062X) =  -653.690218456     A.U. after   14 cycles
 SCF Done:  E(RM062X) =  -653.690237506     A.U. after   12 cycles
 SCF Done:  E(RM062X) =  -653.689907251     A.U. after   12 cycles
 SCF Done:  E(RM062X) =  -653.690304967     A.U. after    8 cycles
 SCF Done:  E(RM062X) =  -653.690338801     A.U. after   10 cycles
 SCF Done:  E(RM062X) =  -653.690339886     A.U. after    9 cycles
 SCF Done:  E(RM062X) =  -653.690341148     A.U. after   10 cycles
 SCF Done:  E(RM062X) =  -653.690342020     A.U. after   11 cycles
 SCF Done:  E(RM062X) =  -653.690342180     A.U. after    9 cycles
 SCF Done:  E(RM062X) =  -653.690342404     A.U. after    9 cycles
 SCF Done:  E(RM062X) =  -653.690342723     A.U. after    9 cycles
 SCF Done:  E(RM062X) =  -653.690342802     A.U. after    8 cycles
 Optimization completed.
    -- Stationary point found.
 Normal termination of Gaussian 09 at Tue Jun 11 15:10:45 2024.

 ----------------------------------------------------------------------
 #N Geom=AllCheck Guess=TCheck SCRF=Check GenChk RM062X/6-311+G(d,p) Fr
 eq
 ----------------------------------------------------------------------

 Structure from the checkpoint file:  "6311m062xDMAN.chk"
 ----------
 [No Title]
 ----------
 Charge =  0 Multiplicity = 1

                         Standard orientation:
 ---------------------------------------------------------------------
 Center     Atomic      Atomic             Coordinates (Angstroms)
 Number     Number       Type             X           Y           Z
 ---------------------------------------------------------------------
      1          6           0        0.676977    2.427940    0.219226
      2          6           0        2.078378    2.387062    0.358758
      3          6           0        2.746561    1.207816    0.200665
      4          6           0        2.028741    0.000141   -0.000002
      5          6           0        0.602210    0.000040   -0.000004
      6          6           0       -0.064937    1.284246   -0.010107
      7          6           0        2.746732   -1.207434   -0.200664
      8          6           0        2.078717   -2.386775   -0.358753
      9          6           0        0.677321   -2.427851   -0.219223
     10          6           0       -0.064756   -1.284261    0.010103
     11          7           0       -1.445911    1.364586   -0.264421
     12          7           0       -1.445718   -1.364793    0.264418
     13          6           0       -1.887606    0.852380   -1.556298
     14          6           0       -2.122310    2.594817    0.083963
     15          6           0       -2.121947   -2.595123   -0.083946
     16          6           0       -1.887491   -0.852618    1.556280
     17          1           0        0.185054    3.390914    0.233863
     18          1           0        2.620138    3.309314    0.533364
     19          1           0        3.829303    1.168671    0.232361
     20          1           0        3.829469   -1.168135   -0.232357
     21          1           0        2.620609   -3.308950   -0.533353
     22          1           0        0.185536   -3.390895   -0.233855
     23          1           0       -1.271127    0.013058   -1.867043
     24          1           0       -2.922556    0.507962   -1.481468
     25          1           0       -1.826384    1.637047   -2.326187
     26          1           0       -1.883319    2.878028    1.110642
     27          1           0       -1.872283    3.435455   -0.583770
     28          1           0       -3.199202    2.424701    0.015232
     29          1           0       -1.882917   -2.878319   -1.110620
     30          1           0       -1.871804   -3.435715    0.583802
     31          1           0       -3.198863   -2.425155   -0.015219
     32          1           0       -1.271119   -0.013214    1.867016
     33          1           0       -2.922483   -0.508329    1.481436
     34          1           0       -1.826178   -1.637265    2.326184
 ---------------------------------------------------------------------

 SCF Done:  E(RM062X) =  -653.690342802     A.U. after    1 cycles

 The electronic state is 1-A.
 Alpha  occ. eigenvalues --  -14.74784 -14.74784 -10.58074 -10.58074 -10.55961
 Alpha  occ. eigenvalues --  -10.55961 -10.55348 -10.55348 -10.55123 -10.54855
 Alpha  occ. eigenvalues --  -10.53822 -10.53822 -10.53245 -10.53245 -10.53197
 Alpha  occ. eigenvalues --  -10.53195  -1.05934  -1.04092  -0.96568  -0.91516
 Alpha  occ. eigenvalues --   -0.86154  -0.83787  -0.81716  -0.80282  -0.80052
 Alpha  occ. eigenvalues --   -0.74018  -0.73949  -0.69418  -0.67973  -0.63644
 Alpha  occ. eigenvalues --   -0.59473  -0.58427  -0.57569  -0.55152  -0.54611
 Alpha  occ. eigenvalues --   -0.53452  -0.52694  -0.52191  -0.51195  -0.48824
 Alpha  occ. eigenvalues --   -0.47582  -0.46974  -0.46203  -0.45765  -0.45442
 Alpha  occ. eigenvalues --   -0.44560  -0.44325  -0.43328  -0.43144  -0.42977
 Alpha  occ. eigenvalues --   -0.39975  -0.39219  -0.39085  -0.34863  -0.31910
 Alpha  occ. eigenvalues --   -0.29243  -0.25765  -0.23445
 Alpha virt. eigenvalues --   -0.00686   0.00884   0.01258   0.01795   0.01992
 Alpha virt. eigenvalues --    0.02786   0.03369   0.03431   0.04157   0.05134
 Alpha virt. eigenvalues --    0.05503   0.05620   0.05665   0.05933   0.06572

 Mulliken charges:
               1
     1  C   -0.276201
     2  C   -0.552506
     3  C   -0.125954
     4  C    0.439706
     5  C   -0.374964
     6  C   -0.063481
     7  C   -0.125951
     8  C   -0.552516
     9  C   -0.276211
    10  C   -0.063463
    11  N    0.180354
    12  N    0.180359
    13  C   -0.369012
    14  C   -0.344422
    15  C   -0.344421
    16  C   -0.369012
    17  H    0.152373
    18  H    0.153922
    19  H    0.151885
    20  H    0.151885
    21  H    0.153922
    22  H    0.152373
    23  H    0.196175
    24  H    0.180031
    25  H    0.161646
    26  H    0.180557
    27  H    0.167382
    28  H    0.174876
    29  H    0.180556
    30  H    0.167382
    31  H    0.174876
    32  H    0.196174
    33  H    0.180031
    34  H    0.161646
 Sum of Mulliken charges =  -0.00000

 Dipole moment (field-independent basis, Debye):
    X=             -1.6246    Y=             -0.0001    Z=              0.0000  Tot=              1.6246
 Quadrupole moment (field-independent basis, Debye-Ang):
   XX=            -90.2224   YY=            -89.2227   ZZ=           -101.7671
   XY=             -0.0001   XZ=             -0.0001   YZ=              1.5866

  Exact polarizability: 213.781  -0.000 217.091  -0.001   7.027 120.775
 Approx polarizability: 267.920  -0.001 280.755  -0.001  14.909 160.829

                      1                      2                      3
                      A                      A                      A
 Frequencies --     54.7796                65.6996                76.2062
 Red. masses --      3.0970                 1.8207                 1.9703
 Frc consts  --      0.0055                 0.0046                 0.0067
 IR Inten    --      0.0029                 5.3430                 0.1893

                      4                      5                      6
                      A                      A                      A
 Frequencies --    120.0462               135.5655               143.8482
 Red. masses --      2.6696                 3.0446                 3.0651
 Frc consts  --      0.0227                 0.0330                 0.0374
 IR Inten    --      1.5337                 0.0320                 0.2424

                      7                      8                      9
                      A                      A                      A
 Frequencies --    179.4252               214.8090               252.6957
 Red. masses --      2.0232                 2.3445                 1.6540
 Frc consts  --      0.0384                 0.0637                 0.0622
 IR Inten    --      1.1898                 0.0014                 0.9928

                     10                     11                     12
                      A                      A                      A
 Frequencies --    272.9849               305.9188               319.8512
 Red. masses --      1.9219                 1.6885                 1.7165
 Frc consts  --      0.0844                 0.0931                 0.1035
 IR Inten    --      4.7782                 3.3253                 1.2283

                     13                     14                     15
                      A                      A                      A
 Frequencies --    325.4011               334.6088               362.9298
 Red. masses --      1.9737                 1.7578                 2.5465
 Frc consts  --      0.1231                 0.1160                 0.1976
 IR Inten    --      2.8655                 0.1373                 0.7370

                     16                     17                     18
                      A                      A                      A
 Frequencies --    372.8800               394.4897               455.1281
 Red. masses --      3.2774                 2.8937                 2.9528
 Frc consts  --      0.2685                 0.2653                 0.3604
 IR Inten    --      3.7979                 3.1445                 1.3176

                     19                     20                     21
                      A                      A                      A
 Frequencies --    479.9157               482.3456               538.3190
 Red. masses --      4.5660                 3.4235                 4.0818
 Frc consts  --      0.6196                 0.4693                 0.6969
 IR Inten    --      5.3801                 2.2940                 4.9553

                     22                     23                     24
                      A                      A                      A
 Frequencies --    539.3994               548.1197               550.6392
 Red. masses --      3.7315                 3.9794                 5.6867
 Frc consts  --      0.6397                 0.7044                 1.0159
 IR Inten    --      1.6243                 0.0064                 1.9292

                     25                     26                     27
                      A                      A                      A
 Frequencies --    642.8121               659.8623               682.6932
 Red. masses --      4.1588                 3.9336                 2.8344
 Frc consts  --      1.0125                 1.0091                 0.7783
 IR Inten    --      3.5595                 8.9037                 8.2342

                     28                     29                     30
                      A                      A                      A
 Frequencies --    777.5470               778.0056               782.7579
 Red. masses --      1.3568                 5.1441                 1.6431
 Frc consts  --      0.4833                 1.8345                 0.5932
 IR Inten    --      0.2465                 0.6196                74.0336

                     31                     32                     33
                      A                      A                      A
 Frequencies --    792.1426               842.9759               888.6787
 Red. masses --      5.2211                 3.4240                 1.4554
 Frc consts  --      1.9303                 1.4336                 0.6772
 IR Inten    --      3.4083                39.4112                 0.3390

                     34                     35                     36
                      A                      A                      A
 Frequencies --    904.7398               923.5407               971.0890
 Red. masses --      1.5152                 4.2431                 3.6393
 Frc consts  --      0.7308                 2.1323                 2.0220
 IR Inten    --      2.0290                 0.9383                30.5300

                     37                     38                     39
                      A                      A                      A
 Frequencies --    993.0194              1001.1478              1058.9289
 Red. masses --      1.3068                 1.3169                 3.9108
 Frc consts  --      0.7592                 0.7777                 2.5837
 IR Inten    --      0.5518                 0.3610                31.0777

                     40                     41                     42
                      A                      A                      A
 Frequencies --   1063.3051              1095.1767              1095.5485
 Red. masses --      2.4491                 1.3683                 1.3503
 Frc consts  --      1.6314                 0.9669                 0.9549
 IR Inten    --     88.4609                16.1873                10.9153

                     43                     44                     45
                      A                      A                      A
 Frequencies --   1116.5547              1118.3783              1130.7974
 Red. masses --      1.2895                 1.3752                 1.6621
 Frc consts  --      0.9472                 1.0134                 1.2522
 IR Inten    --     10.4292                 3.5823                 0.0323

                     46                     47                     48
                      A                      A                      A
 Frequencies --   1140.3081              1164.7322              1167.5396
 Red. masses --      1.6381                 1.4564                 1.4508
 Frc consts  --      1.2550                 1.1641                 1.1652
 IR Inten    --      4.3614                 1.1554                41.6001

                     49                     50                     51
                      A                      A                      A
 Frequencies --   1176.7868              1197.1497              1220.5577
 Red. masses --      1.4623                 1.2181                 1.9533
 Frc consts  --      1.1931                 1.0285                 1.7145
 IR Inten    --      2.9386                 2.5951                 7.0253

                     52                     53                     54
                      A                      A                      A
 Frequencies --   1223.4944              1238.0575              1270.5841
 Red. masses --      1.6742                 1.7958                 3.3083
 Frc consts  --      1.4766                 1.6218                 3.1468
 IR Inten    --      9.2665                15.5851                39.2778

                     55                     56                     57
                      A                      A                      A
 Frequencies --   1271.3671              1351.5448              1362.2371
 Red. masses --      4.1712                 3.1855                 1.9600
 Frc consts  --      3.9724                 3.4283                 2.1429
 IR Inten    --      6.1771                 6.3396                22.2390

                     58                     59                     60
                      A                      A                      A
 Frequencies --   1391.2764              1392.3914              1430.3176
 Red. masses --      3.2988                 7.7099                 2.9624
 Frc consts  --      3.7621                 8.8069                 3.5708
 IR Inten    --     20.5671                 8.6420               109.8367

                     61                     62                     63
                      A                      A                      A
 Frequencies --   1448.3007              1450.1853              1466.2269
 Red. masses --      1.1650                 1.2252                 1.7251
 Frc consts  --      1.4398                 1.5181                 2.1851
 IR Inten    --      0.5859                10.6240                16.2283

                     64                     65                     66
                      A                      A                      A
 Frequencies --   1469.9510              1482.0238              1484.7450
 Red. masses --      1.4121                 1.1658                 1.2099
 Frc consts  --      1.7977                 1.5086                 1.5715
 IR Inten    --      3.3748                 7.2756                 0.5842

                     67                     68                     69
                      A                      A                      A
 Frequencies --   1486.6791              1495.4078              1499.4276
 Red. masses --      1.0715                 1.1141                 1.0513
 Frc consts  --      1.3953                 1.4679                 1.3926
 IR Inten    --      5.8124                 4.5291                27.4338

                     70                     71                     72
                      A                      A                      A
 Frequencies --   1501.6306              1505.6364              1509.8198
 Red. masses --      1.1175                 1.0495                 1.4927
 Frc consts  --      1.4846                 1.4018                 2.0048
 IR Inten    --     18.2184                 2.5507                21.8200

                     73                     74                     75
                      A                      A                      A
 Frequencies --   1528.0074              1531.2937              1565.7462
 Red. masses --      1.1803                 1.1396                 4.0845
 Frc consts  --      1.6236                 1.5744                 5.8997
 IR Inten    --     22.4584                47.5935                25.2600

                     76                     77                     78
                      A                      A                      A
 Frequencies --   1649.6090              1670.3073              1683.3773
 Red. masses --      6.6715                 5.7198                 6.4619
 Frc consts  --     10.6963                 9.4020                10.7888
 IR Inten    --    232.5130                 0.4725                16.1982

                     79                     80                     81
                      A                      A                      A
 Frequencies --   2973.2049              2973.6664              2992.4672
 Red. masses --      1.0557                 1.0557                 1.0535
 Frc consts  --      5.4985                 5.5003                 5.5583
 IR Inten    --    135.2922                16.2273               162.1803

                     82                     83                     84
                      A                      A                      A
 Frequencies --   2993.4815              3082.4686              3084.0948
 Red. masses --      1.0527                 1.0893                 1.0861
 Frc consts  --      5.5577                 6.0980                 6.0865
 IR Inten    --     41.2057                44.2754                19.3258

                     85                     86                     87
                      A                      A                      A
 Frequencies --   3084.9206              3084.9632              3137.0326
 Red. masses --      1.0807                 1.0785                 1.1028
 Frc consts  --      6.0598                 6.0473                 6.3941
 IR Inten    --     13.7177                31.1836                 8.4949

                     88                     89                     90
                      A                      A                      A
 Frequencies --   3137.0502              3181.5190              3182.0182
 Red. masses --      1.1027                 1.0863                 1.0944
 Frc consts  --      6.3937                 6.4786                 6.5285
 IR Inten    --     17.7199                 2.6502                 1.5825

                     91                     92                     93
                      A                      A                      A
 Frequencies --   3182.5369              3182.7145              3197.9144
 Red. masses --      1.0956                 1.0876                 1.0954
 Frc consts  --      6.5379                 6.4912                 6.6004
 IR Inten    --      6.6065                 3.3945                 3.6990

                     94                     95                     96
                      A                      A                      A
 Frequencies --   3199.8974              3212.5052              3212.5886
 Red. masses --      1.0945                 1.0937                 1.0937
 Frc consts  --      6.6029                 6.6500                 6.6504
 IR Inten    --     23.8633                 7.9560                 0.2915

 - Thermochemistry -
 -------------------
 Temperature   298.150 Kelvin.  Pressure   1.00000 Atm.
 Atom     1 has atomic number  6 and mass  12.00000

 Molecular mass:   214.14700 amu.
 Principal axes and moments of inertia in atomic units:
                           1         2         3
     Eigenvalues --  2792.791802850.710434987.93662
           X            1.00000  -0.00001   0.00000
           Y            0.00001   1.00000  -0.00175
           Z           -0.00000   0.00175   1.00000
 This molecule is an asymmetric top.
 Rotational symmetry number  1.
 Warning -- assumption of classical behavior for rotation
           may cause significant error
 Rotational temperatures (Kelvin)      0.03101     0.03038     0.01736
 Rotational constants (GHZ):           0.64621     0.63308     0.36182
 Zero-point vibrational energy     773789.3 (Joules/Mol)
                                  184.94008 (Kcal/Mol)
 Warning -- explicit consideration of  24 degrees of freedom as
           vibrations may cause significant error
 Vibrational temperatures:     78.82    94.53   109.64   172.72   195.05
          (Kelvin)            206.97   258.15   309.06   363.57   392.76
                              440.15   460.19   468.18   481.43   522.17
                              536.49   567.58   654.83   690.49   693.99
                              774.52   776.07   788.62   792.25   924.86
                              949.39   982.24  1118.72  1119.38  1126.21
                             1139.72  1212.85  1278.61  1301.72  1328.77
                             1397.18  1428.73  1440.43  1523.56  1529.86
                             1575.71  1576.25  1606.47  1609.09  1626.96
                             1640.65  1675.79  1679.83  1693.13  1722.43
                             1756.11  1760.33  1781.29  1828.08  1829.21
                             1944.57  1959.95  2001.73  2003.34  2057.91
                             2083.78  2086.49  2109.57  2114.93  2132.30
                             2136.21  2139.00  2151.56  2157.34  2160.51
                             2166.27  2172.29  2198.46  2203.19  2252.76
                             2373.42  2403.20  2422.00  4277.77  4278.44
                             4305.49  4306.95  4434.98  4437.32  4438.51
                             4438.57  4513.48  4513.51  4577.49  4578.21
                             4578.96  4579.21  4601.08  4603.93  4622.07
                             4622.19

 Zero-point correction=                           0.294721 (Hartree/Particle)
 Thermal correction to Energy=                    0.309666
 Thermal correction to Enthalpy=                  0.310610
 Thermal correction to Gibbs Free Energy=         0.253564
 Sum of electronic and zero-point Energies=           -653.395622
 Sum of electronic and thermal Energies=              -653.380677
 Sum of electronic and thermal Enthalpies=            -653.379733
 Sum of electronic and thermal Free Energies=         -653.436779

                     E (Thermal)             CV                S
                      KCal/Mol        Cal/Mol-Kelvin    Cal/Mol-Kelvin
 Total                  194.318             58.931            120.062
 Electronic               0.000              0.000              0.000
 Translational            0.889              2.981             41.988
 Rotational               0.889              2.981             32.052
 Vibrational            192.541             52.970             46.023
 Vibration     1          0.596              1.976              4.637
 Vibration     2          0.597              1.971              4.278
 Vibration     3          0.599              1.965              3.986
 Vibration     4          0.609              1.933              3.100
 Vibration     5          0.613              1.918              2.866
 Vibration     6          0.616              1.909              2.752
 Vibration     7          0.629              1.868              2.334
 Vibration     8          0.645              1.818              2.002
 Vibration     9          0.664              1.758              1.712
 Vibration    10          0.676              1.723              1.577
 Vibration    11          0.696              1.662              1.384
 Vibration    12          0.706              1.636              1.311
 Vibration    13          0.710              1.625              1.283
 Vibration    14          0.716              1.606              1.238
 Vibration    15          0.737              1.549              1.110
 Vibration    16          0.744              1.528              1.068
 Vibration    17          0.761              1.482              0.983
 Vibration    18          0.813              1.350              0.780
 Vibration    19          0.836              1.295              0.710
 Vibration    20          0.839              1.289              0.704
 Vibration    21          0.893              1.165              0.569
 Vibration    22          0.894              1.163              0.567
 Vibration    23          0.903              1.144              0.548
 Vibration    24          0.906              1.138              0.543

 Optimization completed.
    -- Stationary point found.
 Normal termination of Gaussian 09 at Tue Jun 11 15:40:46 2024.
