 Gaussian 09, Revision E.01,
 Gaussian 09:  ES64L-G09RevE.01 30-Nov-2015

 -----------------------------
 # opt freq m062x/6-311+g(d,p)
 -----------------------------

 ----------
 [No Title]
 ----------
 Symbolic Z-matrix:
 Charge =  1 Multiplicity = 1

 SCF Done:  E(RM062X) =  -654.086408641     A.U. after   14 cycles
 SCF Done:  E(RM062X) =  -654.086927986     A.U. after   12 cycles
 SCF Done:  E(RM062X) =  -654.086922865     A.U. after   12 cycles
 SCF Done:  E(RM062X) =  -654.086993215     A.U. after    9 cycles
 SCF Done:  E(RM062X) =  -654.086994653     A.U. after   11 cycles
 SCF Done:  E(RM062X) =  -654.087020300     A.U. after   10 cycles
 SCF Done:  E(RM062X) =  -654.087012411     A.U. after   10 cycles
 SCF Done:  E(RM062X) =  -654.087017373     A.U. after    9 cycles
 SCF Done:  E(RM062X) =  -654.087021556     A.U. after    9 cycles
 Optimization completed.
    -- Stationary point found.
 Normal termination of Gaussian 09 at Tue Jun 11 20:43:25 2024.

 ----------------------------------------------------------------------
 #N Geom=AllCheck Guess=TCheck SCRF=Check GenChk RM062X/6-311+G(d,p) Fr
 eq
 ----------------------------------------------------------------------

 Structure from the checkpoint file:  "m062x6311DMANyang.chk"
 ----------
 [No Title]
 ----------
 Charge =  1 Multiplicity = 1

                         Standard orientation:
 ---------------------------------------------------------------------
 Center     Atomic      Atomic             Coordinates (Angstroms)
 Number     Number       Type             X           Y           Z
 ---------------------------------------------------------------------
      1          6           0       -0.784574   -2.419252    0.000024
      2          6           0       -2.193642   -2.357881    0.000055
      3          6           0       -2.818167   -1.141375    0.000047
      4          6           0       -2.075693    0.066935    0.000023
      5          6           0       -0.649658    0.025091    0.000009
      6          6           0       -0.047975   -1.267685   -0.000003
      7          6           0       -2.740925    1.318387    0.000008
      8          6           0       -2.033065    2.487840   -0.000016
      9          6           0       -0.622673    2.455538   -0.000011
     10          6           0        0.059092    1.266981    0.000007
     11          7           0        1.422731   -1.347049   -0.000094
     12          7           0        1.515663    1.247791    0.000064
     13          6           0        1.967130   -1.972104    1.234466
     14          6           0        1.966946   -1.971952   -1.234817
     15          6           0        2.083344    1.856896   -1.217628
     16          6           0        2.083218    1.856721    1.217899
     17          1           0       -0.291891   -3.385421    0.000012
     18          1           0       -2.768102   -3.275075    0.000075
     19          1           0       -3.900412   -1.081056    0.000057
     20          1           0       -3.824602    1.328589    0.000019
     21          1           0       -2.545456    3.441491   -0.000030
     22          1           0       -0.070793    3.389055   -0.000005
     23          1           0        1.700069   -0.268847   -0.000063
     24          1           0        3.052696   -1.875019    1.225551
     25          1           0        1.549354   -1.457726    2.098550
     26          1           0        1.691473   -3.025981    1.268263
     27          1           0        3.052514   -1.874876   -1.226054
     28          1           0        1.549043   -1.457457   -2.098771
     29          1           0        1.691266   -3.025820   -1.268706
     30          1           0        1.643503    1.387802   -2.098367
     31          1           0        1.886630    2.933004   -1.259524
     32          1           0        3.163073    1.698578   -1.223598
     33          1           0        1.643317    1.387476    2.098529
     34          1           0        3.162952    1.698439    1.223942
     35          1           0        1.886455    2.932814    1.259946
 ---------------------------------------------------------------------

 SCF Done:  E(RM062X) =  -654.087021556     A.U. after    1 cycles

 The electronic state is 1-A.
 Alpha  occ. eigenvalues --  -14.98018 -14.91519 -10.73426 -10.72691 -10.72690
 Alpha  occ. eigenvalues --  -10.71935 -10.70296 -10.69733 -10.69732 -10.69065
 Alpha  occ. eigenvalues --  -10.68972 -10.67876 -10.67673 -10.67582 -10.67168
 Alpha  occ. eigenvalues --  -10.67074  -1.25592  -1.19590  -1.11596  -1.06091
 Alpha  occ. eigenvalues --   -1.01174  -0.98159  -0.97867  -0.95875  -0.94450
 Alpha  occ. eigenvalues --   -0.91600  -0.88083  -0.85245  -0.83084  -0.80133
 Alpha  occ. eigenvalues --   -0.76051  -0.74209  -0.73383  -0.70989  -0.70526
 Alpha  occ. eigenvalues --   -0.69534  -0.66927  -0.66903  -0.66353  -0.64149
 Alpha  occ. eigenvalues --   -0.63382  -0.63140  -0.61765  -0.61403  -0.60639
 Alpha  occ. eigenvalues --   -0.60308  -0.59355  -0.59101  -0.58514  -0.57273
 Alpha  occ. eigenvalues --   -0.56971  -0.54089  -0.53392  -0.52831  -0.47978
 Alpha  occ. eigenvalues --   -0.45094  -0.43424  -0.40202
 Alpha virt. eigenvalues --   -0.15462  -0.12545  -0.11011  -0.08856  -0.08839
 Alpha virt. eigenvalues --   -0.08511  -0.07923  -0.07381  -0.06768  -0.06242
 Alpha virt. eigenvalues --   -0.05991  -0.05791  -0.05147  -0.04428  -0.04298

 Mulliken charges:
               1
     1  C   -0.511447
     2  C   -0.432271
     3  C   -0.062279
     4  C   -0.427832
     5  C    0.270964
     6  C    0.299356
     7  C   -0.048301
     8  C   -0.427897
     9  C   -0.545264
    10  C    0.345423
    11  N   -0.123913
    12  N   -0.225352
    13  C   -0.317184
    14  C   -0.317278
    15  C   -0.319508
    16  C   -0.319610
    17  H    0.181466
    18  H    0.190660
    19  H    0.189345
    20  H    0.187100
    21  H    0.189896
    22  H    0.181209
    23  H    0.465225
    24  H    0.224468
    25  H    0.225151
    26  H    0.224258
    27  H    0.224473
    28  H    0.225144
    29  H    0.224263
    30  H    0.202578
    31  H    0.207175
    32  H    0.205115
    33  H    0.202567
    34  H    0.205118
    35  H    0.207182
 Sum of Mulliken charges =   1.00000

 Dipole moment (field-independent basis, Debye):
    X=              3.9817    Y=             -1.7447    Z=             -0.0002  Tot=              4.3472
 Quadrupole moment (field-independent basis, Debye-Ang):
   XX=            -63.1434   YY=            -63.9944   ZZ=            -92.3722
   XY=             -3.1958   XZ=             -0.0005   YZ=              0.0007

  Exact polarizability: 192.231   0.977 206.951  -0.001   0.000 110.506
 Approx polarizability: 238.452   1.304 278.675  -0.001  -0.001 146.475

                      1                      2                      3
                      A                      A                      A
 Frequencies --     17.4540                70.2335               126.5407
 Red. masses --      3.4525                 2.7312                 2.4059
 Frc consts  --      0.0006                 0.0079                 0.0227
 IR Inten    --      0.0595                 0.2210                 0.6435

                      4                      5                      6
                      A                      A                      A
 Frequencies --    131.3296               158.1044               176.9193
 Red. masses --      3.3610                 2.7595                 2.7849
 Frc consts  --      0.0342                 0.0406                 0.0514
 IR Inten    --      0.1612                20.3669                 3.7862

                      7                      8                      9
                      A                      A                      A
 Frequencies --    190.3737               214.6471               226.2915
 Red. masses --      3.2060                 1.2262                 1.4231
 Frc consts  --      0.0685                 0.0333                 0.0429
 IR Inten    --      0.5023                 0.2808                 1.5053

                     10                     11                     12
                      A                      A                      A
 Frequencies --    234.9089               256.4389               261.9216
 Red. masses --      1.0867                 1.4239                 1.8333
 Frc consts  --      0.0353                 0.0552                 0.0741
 IR Inten    --      0.0084                 4.5016                 0.3778

                     13                     14                     15
                      A                      A                      A
 Frequencies --    279.9195               323.3454               325.5361
 Red. masses --      1.9718                 3.3194                 2.6250
 Frc consts  --      0.0910                 0.2045                 0.1639
 IR Inten    --      0.2193                 0.1894                 2.0894

                     16                     17                     18
                      A                      A                      A
 Frequencies --    384.6600               430.4434               447.9148
 Red. masses --      3.6648                 3.1004                 2.9063
 Frc consts  --      0.3195                 0.3385                 0.3435
 IR Inten    --     12.9619                30.3890                 0.2800

                     19                     20                     21
                      A                      A                      A
 Frequencies --    475.5828               500.9630               532.1242
 Red. masses --      3.3347                 5.2991                 4.5142
 Frc consts  --      0.4444                 0.7835                 0.7531
 IR Inten    --      0.5254                20.9540                13.8190

                     22                     23                     24
                      A                      A                      A
 Frequencies --    537.1509               542.5097               573.1492
 Red. masses --      4.6230                 3.5490                 3.8190
 Frc consts  --      0.7859                 0.6154                 0.7391
 IR Inten    --      7.1896                 0.0080                 3.2817

                     25                     26                     27
                      A                      A                      A
 Frequencies --    649.2875               676.2060               681.8183
 Red. masses --      4.1223                 3.0498                 3.5464
 Frc consts  --      1.0239                 0.8216                 0.9714
 IR Inten    --      0.1052                 0.2121                68.9556

                     28                     29                     30
                      A                      A                      A
 Frequencies --    779.6004               786.4324               793.6859
 Red. masses --      4.7126                 2.2810                 5.3273
 Frc consts  --      1.6875                 0.8312                 1.9772
 IR Inten    --      1.0397                56.9678                 0.6178

                     31                     32                     33
                      A                      A                      A
 Frequencies --    798.9786               855.3974               901.0227
 Red. masses --      1.3109                 2.0956                 3.9144
 Frc consts  --      0.4930                 0.9034                 1.8724
 IR Inten    --      1.1629                37.4709                47.7052

                     34                     35                     36
                      A                      A                      A
 Frequencies --    936.0295               941.9453               962.9016
 Red. masses --      3.6678                 1.3937                 1.4316
 Frc consts  --      1.8934                 0.7286                 0.7820
 IR Inten    --     33.0332                 0.8266                 1.3958

                     37                     38                     39
                      A                      A                      A
 Frequencies --   1019.2222              1027.8900              1029.1592
 Red. masses --      1.3333                 3.1912                 1.3400
 Frc consts  --      0.8161                 1.9865                 0.8362
 IR Inten    --      0.1200                29.9081                 0.1162

                     40                     41                     42
                      A                      A                      A
 Frequencies --   1042.2344              1050.8220              1058.0712
 Red. masses --      1.8227                 3.4584                 1.6389
 Frc consts  --      1.1665                 2.2500                 1.0810
 IR Inten    --     13.3966                21.1379                16.5036

                     43                     44                     45
                      A                      A                      A
 Frequencies --   1092.9926              1111.9928              1114.6203
 Red. masses --      1.2109                 2.0428                 1.2483
 Frc consts  --      0.8523                 1.4882                 0.9137
 IR Inten    --      0.5811                 9.8985                 1.2813

                     46                     47                     48
                      A                      A                      A
 Frequencies --   1117.0140              1180.5353              1192.8712
 Red. masses --      1.8260                 1.2914                 1.4007
 Frc consts  --      1.3424                 1.0604                 1.1743
 IR Inten    --      3.6587                 0.3610                 3.9637

                     49                     50                     51
                      A                      A                      A
 Frequencies --   1200.8318              1202.6010              1212.8437
 Red. masses --      1.6020                 2.4336                 1.3145
 Frc consts  --      1.3611                 2.0737                 1.1392
 IR Inten    --     15.8594                 7.9420                16.2115

                     52                     53                     54
                      A                      A                      A
 Frequencies --   1224.3998              1230.0778              1240.0730
 Red. masses --      3.2437                 1.5305                 1.7200
 Frc consts  --      2.8651                 1.3644                 1.5584
 IR Inten    --     12.9038                59.3943                18.1606

                     55                     56                     57
                      A                      A                      A
 Frequencies --   1247.4582              1289.0378              1315.2930
 Red. masses --      1.8535                 2.1727                 2.4438
 Frc consts  --      1.6994                 2.1270                 2.4909
 IR Inten    --     28.3761                 1.8653                21.1385

                     58                     59                     60
                      A                      A                      A
 Frequencies --   1381.2123              1385.5134              1412.5834
 Red. masses --      2.2372                 3.3541                 5.0302
 Frc consts  --      2.5146                 3.7935                 5.9138
 IR Inten    --    130.1766                10.6338                11.4341

                     61                     62                     63
                      A                      A                      A
 Frequencies --   1441.4236              1441.5588              1445.7617
 Red. masses --      1.1473                 1.4716                 1.1464
 Frc consts  --      1.4045                 1.8018                 1.4118
 IR Inten    --      0.0875                84.1486                 8.1651

                     64                     65                     66
                      A                      A                      A
 Frequencies --   1473.6430              1480.4133              1481.4521
 Red. masses --      1.5379                 1.3384                 1.0416
 Frc consts  --      1.9677                 1.7282                 1.3469
 IR Inten    --      0.4999                 1.3424                 0.0622

                     67                     68                     69
                      A                      A                      A
 Frequencies --   1491.4018              1496.0427              1496.1708
 Red. masses --      1.0462                 1.0429                 1.1917
 Frc consts  --      1.3711                 1.3752                 1.5717
 IR Inten    --      2.6584                 4.1143                 2.6986

                     70                     71                     72
                      A                      A                      A
 Frequencies --   1503.9614              1509.6189              1511.0792
 Red. masses --      1.0429                 1.1578                 1.3166
 Frc consts  --      1.3898                 1.5546                 1.7712
 IR Inten    --     12.7932                15.2713                 1.9858

                     73                     74                     75
                      A                      A                      A
 Frequencies --   1516.4520              1524.1011              1546.3536
 Red. masses --      1.3159                 1.1104                 2.2755
 Frc consts  --      1.7829                 1.5198                 3.2058
 IR Inten    --     10.6399                28.6042               237.3999

                     76                     77                     78
                      A                      A                      A
 Frequencies --   1593.5978              1651.2606              1654.0796
 Red. masses --      1.9249                 1.0942                 7.0132
 Frc consts  --      2.8802                 1.7578                11.3052
 IR Inten    --    243.4474                 5.7081                 4.1402

                     79                     80                     81
                      A                      A                      A
 Frequencies --   1689.6198              1708.3397              2073.0431
 Red. masses --      4.9395                 6.5030                 1.1214
 Frc consts  --      8.3083                11.1819                 2.8394
 IR Inten    --     40.6547                46.1978              1120.8210

                     82                     83                     84
                      A                      A                      A
 Frequencies --   3040.3698              3042.4031              3077.6851
 Red. masses --      1.0349                 1.0362                 1.0312
 Frc consts  --      5.6362                 5.6510                 5.7548
 IR Inten    --     12.2672                11.3448                 2.0205

                     85                     86                     87
                      A                      A                      A
 Frequencies --   3080.2420              3119.8136              3119.8707
 Red. masses --      1.0322                 1.1007                 1.1021
 Frc consts  --      5.7699                 6.3119                 6.3203
 IR Inten    --      2.5502                13.6464                 0.8977

                     88                     89                     90
                      A                      A                      A
 Frequencies --   3147.9018              3149.7539              3172.9476
 Red. masses --      1.1059                 1.1064                 1.1077
 Frc consts  --      6.4567                 6.4673                 6.5706
 IR Inten    --      1.7618                11.7964                 0.0104

                     91                     92                     93
                      A                      A                      A
 Frequencies --   3175.0185              3176.2835              3178.5086
 Red. masses --      1.1068                 1.1003                 1.1072
 Frc consts  --      6.5736                 6.5405                 6.5904
 IR Inten    --      4.9398                 1.3175                 0.0254

                     94                     95                     96
                      A                      A                      A
 Frequencies --   3182.4304              3191.0530              3197.3755
 Red. masses --      1.0995                 1.0882                 1.0922
 Frc consts  --      6.5610                 6.5290                 6.5785
 IR Inten    --      0.6658                 1.3061                 0.9855

                     97                     98                     99
                      A                      A                      A
 Frequencies --   3201.0589              3210.8865              3229.9641
 Red. masses --      1.0914                 1.0989                 1.0968
 Frc consts  --      6.5889                 6.6751                 6.7416
 IR Inten    --      0.1091                 0.0798                 0.3063

 - Thermochemistry -
 -------------------
 Temperature   298.150 Kelvin.  Pressure   1.00000 Atm.
 Atom     1 has atomic number  6 and mass  12.00000

 Molecular mass:   215.15482 amu.
 Principal axes and moments of inertia in atomic units:
                           1         2         3
     Eigenvalues --  2821.655002964.703005054.87641
           X            0.99999  -0.00322   0.00001
           Y            0.00322   0.99999  -0.00002
           Z           -0.00001   0.00002   1.00000
 This molecule is an asymmetric top.
 Rotational symmetry number  1.
 Warning -- assumption of classical behavior for rotation
           may cause significant error
 Rotational temperatures (Kelvin)      0.03070     0.02922     0.01713
 Rotational constants (GHZ):           0.63960     0.60874     0.35703
 Zero-point vibrational energy     807384.0 (Joules/Mol)
                                  192.96940 (Kcal/Mol)
 Warning -- explicit consideration of  24 degrees of freedom as
           vibrations may cause significant error
 Vibrational temperatures:     25.11   101.05   182.06   188.95   227.48
          (Kelvin)            254.55   273.90   308.83   325.58   337.98
                              368.96   376.85   402.74   465.22   468.37
                              553.44   619.31   644.45   684.26   720.77
                              765.61   772.84   780.55   824.63   934.18
                              972.91   980.98  1121.67  1131.50  1141.94
                             1149.55  1230.72  1296.37  1346.74  1355.25
                             1385.40  1466.43  1478.90  1480.73  1499.54
                             1511.90  1522.33  1572.57  1599.91  1603.69
                             1607.13  1698.52  1716.27  1727.73  1730.27
                             1745.01  1761.64  1769.81  1784.19  1794.81
                             1854.64  1892.41  1987.25  1993.44  2032.39
                             2073.88  2074.08  2080.13  2120.24  2129.98
                             2131.48  2145.79  2152.47  2152.65  2163.86
                             2172.00  2174.10  2181.83  2192.84  2224.86
                             2292.83  2375.79  2379.85  2430.98  2457.92
                             2982.64  4374.41  4377.33  4428.10  4431.78
                             4488.71  4488.79  4529.12  4531.79  4565.16
                             4568.14  4569.96  4573.16  4578.80  4591.21
                             4600.30  4605.60  4619.74  4647.19

 Zero-point correction=                           0.307516 (Hartree/Particle)
 Thermal correction to Energy=                    0.322582
 Thermal correction to Enthalpy=                  0.323526
 Thermal correction to Gibbs Free Energy=         0.265716
 Sum of electronic and zero-point Energies=           -653.779505
 Sum of electronic and thermal Energies=              -653.764440
 Sum of electronic and thermal Enthalpies=            -653.763496
 Sum of electronic and thermal Free Energies=         -653.821305

                     E (Thermal)             CV                S
                      KCal/Mol        Cal/Mol-Kelvin    Cal/Mol-Kelvin
 Total                  202.423             59.276            121.670
 Electronic               0.000              0.000              0.000
 Translational            0.889              2.981             42.002
 Rotational               0.889              2.981             32.114
 Vibrational            200.646             53.314             47.554
 Vibration     1          0.593              1.986              6.905
 Vibration     2          0.598              1.968              4.147
 Vibration     3          0.611              1.927              2.998
 Vibration     4          0.612              1.922              2.926
 Vibration     5          0.621              1.894              2.572
 Vibration     6          0.628              1.871              2.361
 Vibration     7          0.634              1.853              2.224
 Vibration     8          0.645              1.819              2.004
 Vibration     9          0.650              1.801              1.908
 Vibration    10          0.655              1.787              1.841
 Vibration    11          0.666              1.752              1.686
 Vibration    12          0.669              1.743              1.649
 Vibration    13          0.680              1.711              1.534
 Vibration    14          0.708              1.629              1.293
 Vibration    15          0.710              1.624              1.282
 Vibration    16          0.754              1.503              1.021
 Vibration    17          0.792              1.404              0.857
 Vibration    18          0.807              1.365              0.802
 Vibration    19          0.832              1.304              0.722
 Vibration    20          0.856              1.248              0.656
 Vibration    21          0.887              1.179              0.582
 Vibration    22          0.892              1.168              0.571
 Vibration    23          0.898              1.156              0.560
 Vibration    24          0.929              1.089              0.498

 Normal termination of Gaussian 09 at Tue Jun 11 21:20:46 2024.
