 Gaussian 09, Revision E.01,
 Gaussian 09:  ES64L-G09RevE.01 30-Nov-2015

 -------------------------------------------------------
 # opt freq B2PLYP/6-31+g(d,p) EmpiricalDispersion=GD3BJ
 -------------------------------------------------------

 ----------
 [No Title]
 ----------
 Symbolic Z-matrix:
 Charge =  0 Multiplicity = 1

 SCF Done:  E(RB2PLYP) =  -491.181429359     A.U. after   15 cycles
 E2(B2PLYP) =    -0.5074306312D+00 E(B2PLYP) =    -0.49168885999020D+03
 SCF Done:  E(RB2PLYP) =  -491.180213936     A.U. after   12 cycles
 E2(B2PLYP) =    -0.5090673291D+00 E(B2PLYP) =    -0.49168928126537D+03
 SCF Done:  E(RB2PLYP) =  -491.179841843     A.U. after   12 cycles
 E2(B2PLYP) =    -0.5093552323D+00 E(B2PLYP) =    -0.49168919707567D+03
 SCF Done:  E(RB2PLYP) =  -491.179141520     A.U. after   12 cycles
 E2(B2PLYP) =    -0.5100724314D+00 E(B2PLYP) =    -0.49168921395110D+03
 SCF Done:  E(RB2PLYP) =  -491.180013959     A.U. after   10 cycles
 E2(B2PLYP) =    -0.5092856314D+00 E(B2PLYP) =    -0.49168929959009D+03
 Optimization completed.
    -- Stationary point found.
 Normal termination of Gaussian 09 at Wed Dec 18 22:58:28 2024.

 ----------------------------------------------------------------------
 #N Geom=AllCheck Guess=TCheck SCRF=Check GenChk RB2PLYP(FC)/6-31+G(d,p
 ) Freq
 ----------------------------------------------------------------------

 Structure from the checkpoint file:  "B2PLYPD3BJPNA.chk"
 ----------
 [No Title]
 ----------
 Charge =  0 Multiplicity = 1

                         Standard orientation:
 ---------------------------------------------------------------------
 Center     Atomic      Atomic             Coordinates (Angstroms)
 Number     Number       Type             X           Y           Z
 ---------------------------------------------------------------------
      1          6           0       -0.022546   -1.216567   -0.000016
      2          6           0       -0.709118   -0.000000   -0.000064
      3          6           0       -0.022546    1.216567   -0.000087
      4          6           0        1.364053    1.214900   -0.000073
      5          6           0        2.081875    0.000000   -0.000030
      6          6           0        1.364053   -1.214900   -0.000002
      7          7           0        3.452472   -0.000000   -0.000023
      8          7           0       -2.163828    0.000000   -0.000084
      9          8           0       -2.746531    1.097133    0.000125
     10          8           0       -2.746531   -1.097133    0.000191
     11          1           0       -0.579345   -2.143221    0.000005
     12          1           0       -0.579345    2.143221   -0.000121
     13          1           0        1.902752    2.155837   -0.000096
     14          1           0        1.902752   -2.155837    0.000030
     15          1           0        3.971268   -0.860050    0.000042
     16          1           0        3.971269    0.860050   -0.000009
 ---------------------------------------------------------------------

 SCF Done:  E(RB2PLYP) =  -491.180013959     A.U. after    2 cycles
 E2(B2PLYP) =    -0.5092856329D+00 E(B2PLYP) =    -0.49168929959156D+03
 E2(B2PLYP) =    -0.5092856329D+00 E(B2PLYP) =    -0.49168929959155D+03

 The electronic state is 1-A.
 Alpha  occ. eigenvalues --  -19.77756 -19.77753 -15.10666 -14.89767 -10.71605
 Alpha  occ. eigenvalues --  -10.68711 -10.66732 -10.66730 -10.65426 -10.65425
 Alpha  occ. eigenvalues --   -1.36844  -1.18268  -1.08768  -1.00778  -0.91248
 Alpha  occ. eigenvalues --   -0.89379  -0.80221  -0.74383  -0.69828  -0.65049
 Alpha  occ. eigenvalues --   -0.63344  -0.62427  -0.60012  -0.58966  -0.54525
 Alpha  occ. eigenvalues --   -0.53403  -0.52249  -0.49582  -0.48022  -0.43831
 Alpha  occ. eigenvalues --   -0.40153  -0.38290  -0.36835  -0.36302  -0.32145
 Alpha  occ. eigenvalues --   -0.27419
 Alpha virt. eigenvalues --   -0.03584   0.01273   0.01751   0.03523   0.04144
 Alpha virt. eigenvalues --    0.05789   0.06373   0.06771   0.09081   0.09109
 Alpha virt. eigenvalues --    0.10458   0.10831   0.11639   0.12261   0.13906

 Mulliken charges:
               1
     1  C    0.042888
     2  C   -0.398153
     3  C    0.042888
     4  C    0.041696
     5  C   -0.030397
     6  C    0.041696
     7  N   -0.665382
     8  N   -0.120885
     9  O   -0.127475
    10  O   -0.127475
    11  H    0.191395
    12  H    0.191395
    13  H    0.140492
    14  H    0.140492
    15  H    0.318413
    16  H    0.318413
 Sum of Mulliken charges =   0.00000

 Dipole moment (field-independent basis, Debye):
    X=              7.8624    Y=              0.0000    Z=             -0.0005  Tot=              7.8624
 Quadrupole moment (field-independent basis, Debye-Ang):
   XX=            -58.1374   YY=            -52.9758   ZZ=            -61.2219
   XY=             -0.0000   XZ=              0.0022   YZ=             -0.0002

  Exact polarizability: 154.972  -0.000  99.590  -0.002  -0.001  50.796
 Approx polarizability: 165.443   0.000 135.893  -0.002  -0.002  62.883

 ******    1 imaginary frequencies (negative Signs) ******

                      1                      2                      3
                      A                      A                      A
 Frequencies --   -391.6590                57.5687               106.7316
 Red. masses --      1.2692                 7.6860                 5.7700
 Frc consts  --      0.1147                 0.0150                 0.0387
 IR Inten    --    233.7144                 0.0000                 0.0076

                      4                      5                      6
                      A                      A                      A
 Frequencies --    225.9652               276.9455               366.1426
 Red. masses --      6.4715                 5.5135                 9.4975
 Frc consts  --      0.1947                 0.2492                 0.7502
 IR Inten    --      0.2104                 4.1106                 0.0111

                      7                      8                      9
                      A                      A                      A
 Frequencies --    382.9363               389.5089               407.7627
 Red. masses --      1.0343                 3.0890                 3.1055
 Frc consts  --      0.0894                 0.2761                 0.3042
 IR Inten    --      0.0000                 0.8898                 0.0000

                     10                     11                     12
                      A                      A                      A
 Frequencies --    463.5188               534.2560               586.5858
 Red. masses --      3.2068                 6.8035                 5.2161
 Frc consts  --      0.4059                 1.1441                 1.0575
 IR Inten    --     20.4273                 2.1534                 4.9781

                     13                     14                     15
                      A                      A                      A
 Frequencies --    641.5172               649.2343               709.6391
 Red. masses --      7.0576                 6.8607                 7.9874
 Frc consts  --      1.7113                 1.7038                 2.3699
 IR Inten    --     17.6009                 0.8402                22.4744

                     16                     17                     18
                      A                      A                      A
 Frequencies --    808.9177               808.9306               819.9416
 Red. masses --      1.2564                 1.5749                 6.8382
 Frc consts  --      0.4844                 0.6072                 2.7087
 IR Inten    --      0.0036                47.7165                 4.1014

                     19                     20                     21
                      A                      A                      A
 Frequencies --    870.4980               932.0820               952.3009
 Red. masses --      7.1467                 1.1614                 1.2940
 Frc consts  --      3.1907                 0.5945                 0.6914
 IR Inten    --     20.8284                 5.3245                 0.0000

                     22                     23                     24
                      A                      A                      A
 Frequencies --   1026.2416              1048.6446              1141.8336
 Red. masses --      2.8592                 1.4100                 2.7051
 Frc consts  --      1.7742                 0.9136                 2.0779
 IR Inten    --      1.4475                 0.0679                89.2303

                     25                     26                     27
                      A                      A                      A
 Frequencies --   1155.9227              1214.8507              1342.8666
 Red. masses --      1.1759                 1.3116                 1.3235
 Frc consts  --      0.9257                 1.1405                 1.4062
 IR Inten    --     14.3894                47.8655                 0.0567

                     28                     29                     30
                      A                      A                      A
 Frequencies --   1351.8184              1363.4275              1409.4933
 Red. masses --      4.7314                 4.6509                 7.5998
 Frc consts  --      5.0942                 5.0939                 8.8957
 IR Inten    --    561.7901               157.3040                 0.7444

                     31                     32                     33
                      A                      A                      A
 Frequencies --   1489.6637              1553.7175              1571.8338
 Red. masses --      3.4672                 2.6632                11.9089
 Frc consts  --      4.5332                 3.7879                17.3355
 IR Inten    --      3.5692                40.7683               175.9710

                     34                     35                     36
                      A                      A                      A
 Frequencies --   1651.6390              1660.4593              1684.7352
 Red. masses --      7.6171                 2.6752                 1.5945
 Frc consts  --     12.2425                 4.3457                 2.6665
 IR Inten    --     45.7748                78.1457               393.1296

                     37                     38                     39
                      A                      A                      A
 Frequencies --   3219.3282              3219.9006              3270.2664
 Red. masses --      1.0907                 1.0906                 1.0929
 Frc consts  --      6.6603                 6.6619                 6.8862
 IR Inten    --     10.3679                12.4471                 0.3097

                     40                     41                     42
                      A                      A                      A
 Frequencies --   3270.3281              3665.3766              3797.6843
 Red. masses --      1.0935                 1.0458                 1.1051
 Frc consts  --      6.8907                 8.2783                 9.3904
 IR Inten    --      3.0352               128.6377                44.9383

 - Thermochemistry -
 -------------------
 Temperature   298.150 Kelvin.  Pressure   1.00000 Atm.
 Atom     1 has atomic number  6 and mass  12.00000

 Molecular mass:   138.04293 amu.
 Principal axes and moments of inertia in atomic units:
                           1         2         3
     Eigenvalues --   462.696522197.877492660.57400
           X            1.00000  -0.00000   0.00002
           Y            0.00000   1.00000   0.00003
           Z           -0.00002  -0.00003   1.00000
 This molecule is an asymmetric top.
 Rotational symmetry number  1.
 Warning -- assumption of classical behavior for rotation
           may cause significant error
 Rotational temperatures (Kelvin)      0.18719     0.03941     0.03255
 Rotational constants (GHZ):           3.90049     0.82113     0.67833
    1 imaginary frequencies ignored.
 Zero-point vibrational energy     311633.3 (Joules/Mol)
                                   74.48214 (Kcal/Mol)
 Warning -- explicit consideration of  11 degrees of freedom as
           vibrations may cause significant error
 Vibrational temperatures:     82.83   153.56   325.11   398.46   526.80
          (Kelvin)            550.96   560.42   586.68   666.90   768.67
                              843.97   923.00   934.10  1021.01  1163.85
                             1163.87  1179.71  1252.45  1341.06  1370.15
                             1476.53  1508.76  1642.84  1663.11  1747.90
                             1932.08  1944.96  1961.67  2027.94  2143.29
                             2235.45  2261.52  2376.34  2389.03  2423.96
                             4631.89  4632.71  4705.18  4705.27  5273.65
                             5464.01

 Zero-point correction=                           0.118695 (Hartree/Particle)
 Thermal correction to Energy=                    0.126885
 Thermal correction to Enthalpy=                  0.127829
 Thermal correction to Gibbs Free Energy=         0.085197
 Sum of electronic and zero-point Energies=           -491.570605
 Sum of electronic and thermal Energies=              -491.562414
 Sum of electronic and thermal Enthalpies=            -491.561470
 Sum of electronic and thermal Free Energies=         -491.604102

                     E (Thermal)             CV                S
                      KCal/Mol        Cal/Mol-Kelvin    Cal/Mol-Kelvin
 Total                   79.622             31.117             89.727
 Electronic               0.000              0.000              0.000
 Translational            0.889              2.981             40.679
 Rotational               0.889              2.981             29.383
 Vibrational             77.844             25.155             19.665
 Vibration     1          0.596              1.974              4.539
 Vibration     2          0.606              1.944              3.328
 Vibration     3          0.650              1.801              1.911
 Vibration     4          0.678              1.716              1.552
 Vibration     5          0.739              1.542              1.096
 Vibration     6          0.752              1.507              1.028
 Vibration     7          0.757              1.493              1.002
 Vibration     8          0.772              1.453              0.935
 Vibration     9          0.821              1.331              0.756
 Vibration    10          0.889              1.174              0.578
 Vibration    11          0.944              1.060              0.473

 Optimization completed.
    -- Stationary point found.
 Normal termination of Gaussian 09 at Wed Dec 18 23:07:22 2024.
