 Gaussian 09, Revision E.01,
 Gaussian 09:  ES64L-G09RevE.01 30-Nov-2015

 -------------------------------------------------------
 # opt freq B2PLYP/6-31+g(d,p) EmpiricalDispersion=GD3BJ
 -------------------------------------------------------

 ----------
 [No Title]
 ----------
 Symbolic Z-matrix:
 Charge =  1 Multiplicity = 1

 SCF Done:  E(RB2PLYP) =  -491.527603797     A.U. after   16 cycles
 E2(B2PLYP) =    -0.5066343682D+00 E(B2PLYP) =    -0.49203423816517D+03
 SCF Done:  E(RB2PLYP) =  -491.526455434     A.U. after   12 cycles
 E2(B2PLYP) =    -0.5081894624D+00 E(B2PLYP) =    -0.49203464489613D+03
 SCF Done:  E(RB2PLYP) =  -491.526147355     A.U. after   12 cycles
 E2(B2PLYP) =    -0.5085284085D+00 E(B2PLYP) =    -0.49203467576308D+03
 SCF Done:  E(RB2PLYP) =  -491.526117038     A.U. after   10 cycles
 E2(B2PLYP) =    -0.5085606402D+00 E(B2PLYP) =    -0.49203467767808D+03
 SCF Done:  E(RB2PLYP) =  -491.526112438     A.U. after   10 cycles
 E2(B2PLYP) =    -0.5085656418D+00 E(B2PLYP) =    -0.49203467807949D+03
 SCF Done:  E(RB2PLYP) =  -491.526130397     A.U. after   10 cycles
 E2(B2PLYP) =    -0.5085479700D+00 E(B2PLYP) =    -0.49203467836654D+03
 Optimization completed.
    -- Stationary point found.
 Normal termination of Gaussian 09 at Wed Dec 18 23:27:46 2024.

 ----------------------------------------------------------------------
 #N Geom=AllCheck Guess=TCheck SCRF=Check GenChk RB2PLYP(FC)/6-31+G(d,p
 ) Freq
 ----------------------------------------------------------------------

 Structure from the checkpoint file:  "B2PLYPD3BJPNAyang.chk"
 ----------
 [No Title]
 ----------
 Charge =  1 Multiplicity = 1

                         Standard orientation:
 ---------------------------------------------------------------------
 Center     Atomic      Atomic             Coordinates (Angstroms)
 Number     Number       Type             X           Y           Z
 ---------------------------------------------------------------------
      1          6           0       -0.059024    1.264888    0.000016
      2          6           0        0.664638    0.038483    0.000037
      3          6           0       -0.005549   -1.217270    0.000025
      4          6           0       -1.373347   -1.238881    0.000011
      5          6           0       -2.119336   -0.018282    0.000000
      6          6           0       -1.425070    1.233666    0.000002
      7          7           0       -3.454834   -0.045672   -0.000011
      8          7           0        2.030000    0.109930    0.000053
      9          8           0        2.670609   -1.109385   -0.000055
     10          8           0        2.713638    1.124752   -0.000038
     11          1           0        0.480118    2.203027    0.000019
     12          1           0        0.559100   -2.138581    0.000033
     13          1           0       -1.899920   -2.185353    0.000009
     14          1           0       -1.990043    2.157776   -0.000004
     15          1           0       -3.999692    0.804693   -0.000018
     16          1           0       -3.964746   -0.917418   -0.000012
     17          1           0        3.621164   -0.872511   -0.000124
 ---------------------------------------------------------------------

 SCF Done:  E(RB2PLYP) =  -491.526130397     A.U. after    1 cycles
 E2(B2PLYP) =    -0.5085479723D+00 E(B2PLYP) =    -0.49203467836885D+03
 E2(B2PLYP) =    -0.5085479723D+00 E(B2PLYP) =    -0.49203467836885D+03

 The electronic state is 1-A.
 Alpha  occ. eigenvalues --  -20.01977 -19.98408 -15.29447 -15.07107 -10.89500
 Alpha  occ. eigenvalues --  -10.87015 -10.83883 -10.83652 -10.81673 -10.81640
 Alpha  occ. eigenvalues --   -1.56260  -1.39450  -1.26322  -1.20267  -1.11729
 Alpha  occ. eigenvalues --   -1.06290  -0.99126  -0.91842  -0.89226  -0.83929
 Alpha  occ. eigenvalues --   -0.82459  -0.80015  -0.79271  -0.78515  -0.72981
 Alpha  occ. eigenvalues --   -0.69731  -0.69320  -0.68425  -0.66340  -0.64477
 Alpha  occ. eigenvalues --   -0.60852  -0.59854  -0.57284  -0.56495  -0.48845
 Alpha  occ. eigenvalues --   -0.43995
 Alpha virt. eigenvalues --   -0.24513  -0.13160  -0.10243  -0.10188  -0.09022
 Alpha virt. eigenvalues --   -0.07590  -0.06462  -0.05680  -0.04511  -0.04011
 Alpha virt. eigenvalues --   -0.02610  -0.01557  -0.01129  -0.00997   0.00097

 Mulliken charges:
               1
     1  C    0.061230
     2  C   -0.531190
     3  C    0.259476
     4  C    0.032468
     5  C    0.028320
     6  C    0.086466
     7  N   -0.571832
     8  N   -0.203229
     9  O   -0.086463
    10  O   -0.011502
    11  H    0.221423
    12  H    0.219762
    13  H    0.186456
    14  H    0.187987
    15  H    0.355835
    16  H    0.355496
    17  H    0.409294
 Sum of Mulliken charges =   1.00000

 Dipole moment (field-independent basis, Debye):
    X=             -3.6408    Y=             -1.1560    Z=             -0.0000  Tot=              3.8199
 Quadrupole moment (field-independent basis, Debye-Ang):
   XX=             -9.5380   YY=            -44.8353   ZZ=            -59.1321
   XY=             -4.9349   XZ=             -0.0003   YZ=              0.0001

  Exact polarizability: 202.614   5.708  88.325  -0.001  -0.000  45.116
 Approx polarizability: 267.302  20.994 111.649  -0.000  -0.000  57.164

                      1                      2                      3
                      A                      A                      A
 Frequencies --     90.8394                96.6125               221.0613
 Red. masses --      5.2880                 6.7123                 5.7582
 Frc consts  --      0.0257                 0.0369                 0.1658
 IR Inten    --      1.6553                 1.3979                 1.1650

                      4                      5                      6
                      A                      A                      A
 Frequencies --    247.4291               369.4892               376.2493
 Red. masses --      4.7700                 8.2355                 2.1805
 Frc consts  --      0.1721                 0.6624                 0.1819
 IR Inten    --      0.0914                 0.8047                33.5061

                      7                      8                      9
                      A                      A                      A
 Frequencies --    396.4758               426.3405               459.6994
 Red. masses --      3.0834                 1.4092                 2.2304
 Frc consts  --      0.2856                 0.1509                 0.2777
 IR Inten    --      0.2273               126.2953                 0.1979

                     10                     11                     12
                      A                      A                      A
 Frequencies --    485.7698               530.9634               553.1439
 Red. masses --      1.2841                 5.9285                 1.0532
 Frc consts  --      0.1785                 0.9847                 0.1899
 IR Inten    --    215.4012                11.7935                 0.0304

                     13                     14                     15
                      A                      A                      A
 Frequencies --    603.8344               611.7244               632.3957
 Red. masses --      5.9787                 5.0351                 6.8592
 Frc consts  --      1.2844                 1.1101                 1.6162
 IR Inten    --     23.5830                 7.5735                 4.7845

                     16                     17                     18
                      A                      A                      A
 Frequencies --    646.4762               730.8915               803.5372
 Red. masses --     11.7311                 5.5413                 1.2778
 Frc consts  --      2.8886                 1.7441                 0.4861
 IR Inten    --      7.1013                23.1384                 1.1978

                     19                     20                     21
                      A                      A                      A
 Frequencies --    825.6847               843.5773               955.9321
 Red. masses --      1.5832                 5.5939                 1.1771
 Frc consts  --      0.6359                 2.3454                 0.6338
 IR Inten    --     65.5378                27.4468                 1.2531

                     22                     23                     24
                      A                      A                      A
 Frequencies --    968.7061              1004.7612              1028.7156
 Red. masses --      1.2834                 3.3185                 4.0529
 Frc consts  --      0.7096                 1.9738                 2.5270
 IR Inten    --      0.2143                 8.3227               245.3740

                     25                     26                     27
                      A                      A                      A
 Frequencies --   1058.6923              1182.2824              1211.5711
 Red. masses --      1.5361                 1.1997                 1.2244
 Frc consts  --      1.0144                 0.9880                 1.0589
 IR Inten    --     25.2017                22.3388               342.0707

                     28                     29                     30
                      A                      A                      A
 Frequencies --   1287.5852              1359.7465              1379.7611
 Red. masses --      1.8647                 1.3761                 2.4239
 Frc consts  --      1.8214                 1.4990                 2.7188
 IR Inten    --    286.4497                30.2001                81.5803

                     31                     32                     33
                      A                      A                      A
 Frequencies --   1422.2570              1437.8844              1553.7329
 Red. masses --      2.3262                 4.2124                 4.7429
 Frc consts  --      2.7723                 5.1314                 6.7461
 IR Inten    --     68.8075                25.0742                82.4163

                     34                     35                     36
                      A                      A                      A
 Frequencies --   1563.1481              1577.4280              1660.4897
 Red. masses --      2.7937                 5.4561                 4.5137
 Frc consts  --      4.0219                 7.9989                 7.3325
 IR Inten    --     65.2290                 7.3423               884.4503

                     37                     38                     39
                      A                      A                      A
 Frequencies --   1686.5009              1715.5132              3242.4127
 Red. masses --      2.2005                 2.0639                 1.0916
 Frc consts  --      3.6875                 3.5787                 6.7618
 IR Inten    --     98.5160               258.0048                 0.1492

                     40                     41                     42
                      A                      A                      A
 Frequencies --   3242.8380              3267.0650              3281.6412
 Red. masses --      1.0925                 1.0958                 1.0950
 Frc consts  --      6.7689                 6.8913                 6.9480
 IR Inten    --      0.1484                 9.9464                 8.5938

                     43                     44                     45
                      A                      A                      A
 Frequencies --   3603.9911              3677.0312              3731.3805
 Red. masses --      1.0477                 1.0665                 1.1058
 Frc consts  --      8.0175                 8.4955                 9.0714
 IR Inten    --    442.3980               378.7931                88.6698

 - Thermochemistry -
 -------------------
 Temperature   298.150 Kelvin.  Pressure   1.00000 Atm.
 Atom     1 has atomic number  6 and mass  12.00000

 Molecular mass:   139.05075 amu.
 Principal axes and moments of inertia in atomic units:
                           1         2         3
     Eigenvalues --   482.277832199.644272681.92209
           X            0.99998  -0.00613   0.00000
           Y            0.00613   0.99998  -0.00000
           Z           -0.00000   0.00000   1.00000
 This molecule is an asymmetric top.
 Rotational symmetry number  1.
 Warning -- assumption of classical behavior for rotation
           may cause significant error
 Rotational temperatures (Kelvin)      0.17959     0.03938     0.03230
 Rotational constants (GHZ):           3.74212     0.82047     0.67293
 Zero-point vibrational energy     347235.6 (Joules/Mol)
                                   82.99130 (Kcal/Mol)
 Warning -- explicit consideration of  14 degrees of freedom as
           vibrations may cause significant error
 Vibrational temperatures:    130.70   139.00   318.06   355.99   531.61
          (Kelvin)            541.34   570.44   613.41   661.40   698.91
                              763.94   795.85   868.78   880.13   909.88
                              930.13  1051.59  1156.11  1187.97  1213.72
                             1375.37  1393.75  1445.63  1480.09  1523.22
                             1701.04  1743.18  1852.55  1956.37  1985.17
                             2046.31  2068.79  2235.47  2249.02  2269.56
                             2389.07  2426.50  2468.24  4665.10  4665.71
                             4700.57  4721.54  5185.33  5290.42  5368.62

 Zero-point correction=                           0.132255 (Hartree/Particle)
 Thermal correction to Energy=                    0.140935
 Thermal correction to Enthalpy=                  0.141879
 Thermal correction to Gibbs Free Energy=         0.098765
 Sum of electronic and zero-point Energies=           -491.902423
 Sum of electronic and thermal Energies=              -491.893743
 Sum of electronic and thermal Enthalpies=            -491.892799
 Sum of electronic and thermal Free Energies=         -491.935913

                     E (Thermal)             CV                S
                      KCal/Mol        Cal/Mol-Kelvin    Cal/Mol-Kelvin
 Total                   88.438             34.029             90.742
 Electronic               0.000              0.000              0.000
 Translational            0.889              2.981             40.701
 Rotational               0.889              2.981             29.433
 Vibrational             86.661             28.067             20.609
 Vibration     1          0.602              1.956              3.642
 Vibration     2          0.603              1.952              3.522
 Vibration     3          0.648              1.809              1.950
 Vibration     4          0.661              1.767              1.749
 Vibration     5          0.742              1.535              1.082
 Vibration     6          0.747              1.521              1.054
 Vibration     7          0.763              1.478              0.976
 Vibration     8          0.788              1.413              0.871
 Vibration     9          0.818              1.339              0.767
 Vibration    10          0.842              1.282              0.695
 Vibration    11          0.886              1.181              0.585
 Vibration    12          0.909              1.133              0.538
 Vibration    13          0.962              1.024              0.443
 Vibration    14          0.971              1.007              0.430

 Optimization completed.
    -- Stationary point found.
 Normal termination of Gaussian 09 at Wed Dec 18 23:36:34 2024.
