 Gaussian 09, Revision E.01,
 Gaussian 09:  ES64L-G09RevE.01 30-Nov-2015

 -------------------------------------
 # opt freq b3lyp/6-31+g(d,p) em=gd3bj
 -------------------------------------

 ----------
 [No Title]
 ----------
 Symbolic Z-matrix:
 Charge =  0 Multiplicity = 1

 SCF Done:  E(RB3LYP) =  -492.099011831     A.U. after   15 cycles
 SCF Done:  E(RB3LYP) =  -492.156532611     A.U. after   14 cycles
 SCF Done:  E(RB3LYP) =  -492.171843516     A.U. after   14 cycles
 SCF Done:  E(RB3LYP) =  -492.173761372     A.U. after   12 cycles
 SCF Done:  E(RB3LYP) =  -492.174186255     A.U. after   12 cycles
 SCF Done:  E(RB3LYP) =  -492.174234722     A.U. after   11 cycles
 SCF Done:  E(RB3LYP) =  -492.174237491     A.U. after   10 cycles
 SCF Done:  E(RB3LYP) =  -492.174237450     A.U. after   10 cycles
 Optimization completed.
    -- Stationary point found.
 Normal termination of Gaussian 09 at Thu Jun 13 21:45:15 2024.

 ----------------------------------------------------------------------
 #N Geom=AllCheck Guess=TCheck SCRF=Check GenChk RB3LYP/6-31+G(d,p) Fre
 q
 ----------------------------------------------------------------------

 Structure from the checkpoint file:  "b3lypPNA.chk"
 ----------
 [No Title]
 ----------
 Charge =  0 Multiplicity = 1

                         Standard orientation:
 ---------------------------------------------------------------------
 Center     Atomic      Atomic             Coordinates (Angstroms)
 Number     Number       Type             X           Y           Z
 ---------------------------------------------------------------------
      1          6           0       -0.021796    1.216405    0.000228
      2          6           0       -0.711339    0.000001    0.000394
      3          6           0       -0.021797   -1.216402    0.000299
      4          6           0        1.363253   -1.216104    0.000162
      5          6           0        2.082168   -0.000001    0.000057
      6          6           0        1.363254    1.216104    0.000091
      7          7           0        3.451498    0.000001   -0.000071
      8          7           0       -2.163906    0.000000    0.000613
      9          8           0       -2.745196   -1.091600   -0.000701
     10          8           0       -2.745209    1.091597   -0.000768
     11          1           0       -0.580949    2.143553    0.000271
     12          1           0       -0.580954   -2.143550    0.000397
     13          1           0        1.903261   -2.158272    0.000144
     14          1           0        1.903264    2.158270    0.000018
     15          1           0        3.971504    0.861227   -0.000155
     16          1           0        3.971503   -0.861226   -0.000103
 ---------------------------------------------------------------------

 SCF Done:  E(RB3LYP) =  -492.174237450     A.U. after    1 cycles

 The electronic state is 1-A.
 Alpha  occ. eigenvalues --  -19.17978 -19.17977 -14.56856 -14.38721 -10.27434
 Alpha  occ. eigenvalues --  -10.24704 -10.22544 -10.22543 -10.21821 -10.21821
 Alpha  occ. eigenvalues --   -1.21877  -1.04554  -0.96215  -0.88413  -0.79931
 Alpha  occ. eigenvalues --   -0.78049  -0.70016  -0.65034  -0.60727  -0.56630
 Alpha  occ. eigenvalues --   -0.55815  -0.54278  -0.52682  -0.50631  -0.47158
 Alpha  occ. eigenvalues --   -0.46300  -0.45238  -0.42814  -0.41879  -0.37495
 Alpha  occ. eigenvalues --   -0.34698  -0.30826  -0.30819  -0.28836  -0.28400
 Alpha  occ. eigenvalues --   -0.23874
 Alpha virt. eigenvalues --   -0.08873  -0.03642  -0.02009   0.00133   0.00685
 Alpha virt. eigenvalues --    0.01082   0.03540   0.04137   0.05631   0.06009
 Alpha virt. eigenvalues --    0.07308   0.08075   0.08334   0.08887   0.10381

 Mulliken charges:
               1
     1  C   -0.051977
     2  C   -0.203193
     3  C   -0.051979
     4  C   -0.004832
     5  C    0.183645
     6  C   -0.004825
     7  N   -0.648839
     8  N   -0.271225
     9  O   -0.068106
    10  O   -0.068110
    11  H    0.166983
    12  H    0.166984
    13  H    0.119427
    14  H    0.119427
    15  H    0.308309
    16  H    0.308309
 Sum of Mulliken charges =  -0.00000

 Dipole moment (field-independent basis, Debye):
    X=              7.9311    Y=             -0.0000    Z=              0.0025  Tot=              7.9311
 Quadrupole moment (field-independent basis, Debye-Ang):
   XX=            -57.1082   YY=            -53.3021   ZZ=            -60.7731
   XY=              0.0000   XZ=             -0.0095   YZ=             -0.0002

  Exact polarizability: 157.852  -0.000  99.551   0.006  -0.001  50.669
 Approx polarizability: 254.973  -0.000 183.793   0.011  -0.003  73.814

 ******    1 imaginary frequencies (negative Signs) ******

                      1                      2                      3
                      A                      A                      A
 Frequencies --   -257.7437                71.4205               109.4345
 Red. masses --      1.2347                 7.6738                 5.8248
 Frc consts  --      0.0483                 0.0231                 0.0411
 IR Inten    --    228.2359                 0.0000                 0.0099

                      4                      5                      6
                      A                      A                      A
 Frequencies --    225.8086               286.6791               365.6813
 Red. masses --      6.4608                 5.5862                 9.4704
 Frc consts  --      0.1941                 0.2705                 0.7461
 IR Inten    --      0.2622                 4.0153                 0.0052

                      7                      8                      9
                      A                      A                      A
 Frequencies --    391.4850               407.9603               425.9269
 Red. masses --      3.0680                 1.0511                 2.7906
 Frc consts  --      0.2770                 0.1031                 0.2983
 IR Inten    --      0.8999                 0.0000                 0.0000

                     10                     11                     12
                      A                      A                      A
 Frequencies --    497.3315               538.8602               642.8094
 Red. masses --      2.6812                 6.7949                 6.9750
 Frc consts  --      0.3907                 1.1625                 1.6981
 IR Inten    --     18.4963                 2.8288                16.0853

                     13                     14                     15
                      A                      A                      A
 Frequencies --    648.5506               692.8766               751.0030
 Red. masses --      6.8744                 3.2712                 7.8105
 Frc consts  --      1.7036                 0.9253                 2.5954
 IR Inten    --      0.9993                11.7424                18.3797

                     16                     17                     18
                      A                      A                      A
 Frequencies --    817.2868               824.7635               845.8733
 Red. masses --      1.2589                 6.3158                 1.9037
 Frc consts  --      0.4954                 2.5313                 0.8025
 IR Inten    --      0.0000                 1.8637                45.9503

                     19                     20                     21
                      A                      A                      A
 Frequencies --    873.5684               975.6019               981.3949
 Red. masses --      7.7556                 1.2909                 1.3286
 Frc consts  --      3.4871                 0.7239                 0.7539
 IR Inten    --     19.1855                 1.5905                 0.0000

                     22                     23                     24
                      A                      A                      A
 Frequencies --   1021.4403              1039.7548              1138.5157
 Red. masses --      2.7880                 1.4110                 2.4716
 Frc consts  --      1.7138                 0.8988                 1.8876
 IR Inten    --      1.7108                 0.1624               142.9232

                     25                     26                     27
                      A                      A                      A
 Frequencies --   1148.8078              1210.2207              1333.6736
 Red. masses --      1.1717                 1.3742                 1.3267
 Frc consts  --      0.9111                 1.1859                 1.3903
 IR Inten    --     15.0705                27.7955                 0.0308

                     28                     29                     30
                      A                      A                      A
 Frequencies --   1346.5305              1372.9677              1389.2301
 Red. masses --      3.3769                 8.1078                 7.7148
 Frc consts  --      3.6074                 9.0048                 8.7724
 IR Inten    --    384.0290               470.7178                 1.4253

                     31                     32                     33
                      A                      A                      A
 Frequencies --   1483.6849              1542.9937              1572.2362
 Red. masses --      3.4844                 2.6412                11.2996
 Frc consts  --      4.5192                 3.7050                16.4569
 IR Inten    --      4.8430                47.7402               191.0739

                     34                     35                     36
                      A                      A                      A
 Frequencies --   1640.9763              1650.2647              1669.3225
 Red. masses --      7.9181                 2.1438                 1.9029
 Frc consts  --     12.5625                 3.4399                 3.1242
 IR Inten    --     85.7178                24.6218               427.8804

                     37                     38                     39
                      A                      A                      A
 Frequencies --   3189.4106              3190.1791              3242.5885
 Red. masses --      1.0904                 1.0903                 1.0925
 Frc consts  --      6.5352                 6.5380                 6.7679
 IR Inten    --     10.9753                13.5548                 0.2736

                     40                     41                     42
                      A                      A                      A
 Frequencies --   3242.8121              3635.6294              3762.6298
 Red. masses --      1.0932                 1.0457                 1.1050
 Frc consts  --      6.7734                 8.1439                 9.2172
 IR Inten    --      3.4862               120.8990                42.3004

 - Thermochemistry -
 -------------------
 Temperature   298.150 Kelvin.  Pressure   1.00000 Atm.
 Atom     1 has atomic number  6 and mass  12.00000

 Molecular mass:   138.04293 amu.
 Principal axes and moments of inertia in atomic units:
                           1         2         3
     Eigenvalues --   461.629962196.764172658.39396
           X            1.00000   0.00000  -0.00007
           Y           -0.00000   1.00000   0.00003
           Z            0.00007  -0.00003   1.00000
 This molecule is an asymmetric top.
 Rotational symmetry number  1.
 Warning -- assumption of classical behavior for rotation
           may cause significant error
 Rotational temperatures (Kelvin)      0.18763     0.03943     0.03258
 Rotational constants (GHZ):           3.90950     0.82155     0.67888
    1 imaginary frequencies ignored.
 Zero-point vibrational energy     312214.5 (Joules/Mol)
                                   74.62105 (Kcal/Mol)
 Warning -- explicit consideration of  10 degrees of freedom as
           vibrations may cause significant error
 Vibrational temperatures:    102.76   157.45   324.89   412.47   526.13
          (Kelvin)            563.26   586.96   612.81   715.55   775.30
                              924.86   933.12   996.89  1080.52  1175.89
                             1186.65  1217.02  1256.87  1403.67  1412.01
                             1469.62  1495.97  1638.07  1652.88  1741.24
                             1918.86  1937.35  1975.39  1998.79  2134.69
                             2220.02  2262.09  2361.00  2374.36  2401.78
                             4588.84  4589.95  4665.36  4665.68  5230.85
                             5413.58

 Zero-point correction=                           0.118916 (Hartree/Particle)
 Thermal correction to Energy=                    0.126899
 Thermal correction to Enthalpy=                  0.127843
 Thermal correction to Gibbs Free Energy=         0.085715
 Sum of electronic and zero-point Energies=           -492.055321
 Sum of electronic and thermal Energies=              -492.047338
 Sum of electronic and thermal Enthalpies=            -492.046394
 Sum of electronic and thermal Free Energies=         -492.088522

                     E (Thermal)             CV                S
                      KCal/Mol        Cal/Mol-Kelvin    Cal/Mol-Kelvin
 Total                   79.630             30.487             88.666
 Electronic               0.000              0.000              0.000
 Translational            0.889              2.981             40.679
 Rotational               0.889              2.981             29.379
 Vibrational             77.853             24.525             18.608
 Vibration     1          0.598              1.968              4.114
 Vibration     2          0.606              1.942              3.279
 Vibration     3          0.650              1.802              1.912
 Vibration     4          0.684              1.698              1.493
 Vibration     5          0.739              1.543              1.098
 Vibration     6          0.759              1.488              0.994
 Vibration     7          0.773              1.453              0.934
 Vibration     8          0.788              1.414              0.872
 Vibration     9          0.853              1.256              0.665
 Vibration    10          0.894              1.164              0.568

 Optimization completed.
    -- Stationary point found.
 Normal termination of Gaussian 09 at Thu Jun 13 21:46:17 2024.
