 Gaussian 09, Revision E.01,
 Gaussian 09:  ES64L-G09RevE.01 30-Nov-2015

 -------------------------------------
 # opt freq b3lyp/6-31+g(d,p) em=gd3bj
 -------------------------------------

 ----------
 [No Title]
 ----------
 Symbolic Z-matrix:
 Charge =  1 Multiplicity = 1

 SCF Done:  E(RB3LYP) =  -492.418321867     A.U. after   17 cycles
 SCF Done:  E(RB3LYP) =  -492.490804124     A.U. after   14 cycles
 SCF Done:  E(RB3LYP) =  -492.515317828     A.U. after   14 cycles
 SCF Done:  E(RB3LYP) =  -492.521196626     A.U. after   12 cycles
 SCF Done:  E(RB3LYP) =  -492.522728823     A.U. after   12 cycles
 SCF Done:  E(RB3LYP) =  -492.523160676     A.U. after   12 cycles
 SCF Done:  E(RB3LYP) =  -492.523186135     A.U. after   11 cycles
 SCF Done:  E(RB3LYP) =  -492.523189480     A.U. after   10 cycles
 Optimization completed.
    -- Stationary point found.
 Normal termination of Gaussian 09 at Thu Jun 13 22:16:04 2024.

 ----------------------------------------------------------------------
 #N Geom=AllCheck Guess=TCheck SCRF=Check GenChk RB3LYP/6-31+G(d,p) Fre
 q
 ----------------------------------------------------------------------

 Structure from the checkpoint file:  "b3lypPNAyang.chk"
 ----------
 [No Title]
 ----------
 Charge =  1 Multiplicity = 1

                         Standard orientation:
 ---------------------------------------------------------------------
 Center     Atomic      Atomic             Coordinates (Angstroms)
 Number     Number       Type             X           Y           Z
 ---------------------------------------------------------------------
      1          6           0       -0.060168    1.264512   -0.000001
      2          6           0        0.667215    0.038700    0.000003
      3          6           0       -0.006463   -1.216902    0.000000
      4          6           0       -1.372344   -1.239434    0.000002
      5          6           0       -2.120136   -0.018528   -0.000001
      6          6           0       -1.424625    1.233625   -0.000006
      7          7           0       -3.455699   -0.046419   -0.000001
      8          7           0        2.031320    0.110101    0.000014
      9          8           0        2.673146   -1.103617    0.000004
     10          8           0        2.710147    1.120092    0.000004
     11          1           0        0.478867    2.204406   -0.000002
     12          1           0        0.558802   -2.139695   -0.000001
     13          1           0       -1.899830   -2.187322    0.000006
     14          1           0       -1.990692    2.159031   -0.000014
     15          1           0       -4.002258    0.804349   -0.000006
     16          1           0       -3.966668   -0.919003    0.000007
     17          1           0        3.625215   -0.871171   -0.000130
 ---------------------------------------------------------------------

 SCF Done:  E(RB3LYP) =  -492.523189480     A.U. after    1 cycles

 The electronic state is 1-A.
 Alpha  occ. eigenvalues --  -19.42011 -19.38639 -14.75659 -14.55949 -10.44979
 Alpha  occ. eigenvalues --  -10.43205 -10.39595 -10.39430 -10.38137 -10.38133
 Alpha  occ. eigenvalues --   -1.41364  -1.25481  -1.13568  -1.07840  -1.00207
 Alpha  occ. eigenvalues --   -0.94905  -0.88951  -0.82748  -0.80292  -0.75682
 Alpha  occ. eigenvalues --   -0.73638  -0.72117  -0.71552  -0.70895  -0.64828
 Alpha  occ. eigenvalues --   -0.62743  -0.62003  -0.61233  -0.59537  -0.58444
 Alpha  occ. eigenvalues --   -0.53540  -0.53453  -0.51399  -0.49834  -0.45023
 Alpha  occ. eigenvalues --   -0.40900
 Alpha virt. eigenvalues --   -0.29147  -0.19064  -0.16504  -0.13940  -0.13137
 Alpha virt. eigenvalues --   -0.10901  -0.10210  -0.09539  -0.07776  -0.07563
 Alpha virt. eigenvalues --   -0.07143  -0.05492  -0.05458  -0.04396  -0.03709

 Mulliken charges:
               1
     1  C   -0.036231
     2  C   -0.374031
     3  C    0.205411
     4  C    0.014079
     5  C    0.211752
     6  C    0.049981
     7  N   -0.551792
     8  N   -0.347619
     9  O   -0.029323
    10  O    0.046777
    11  H    0.197011
    12  H    0.196213
    13  H    0.165413
    14  H    0.167180
    15  H    0.345563
    16  H    0.345299
    17  H    0.394318
 Sum of Mulliken charges =   1.00000

 Dipole moment (field-independent basis, Debye):
    X=             -3.8125    Y=             -1.0926    Z=             -0.0002  Tot=              3.9660
 Quadrupole moment (field-independent basis, Debye-Ang):
   XX=             -8.6557   YY=            -44.8776   ZZ=            -58.6190
   XY=             -4.6938   XZ=             -0.0010   YZ=              0.0002

  Exact polarizability: 196.233   5.353  88.349  -0.000  -0.000  45.037
 Approx polarizability: 452.641  35.625 150.921   0.000  -0.000  66.306

                      1                      2                      3
                      A                      A                      A
 Frequencies --     95.6276               104.1364               221.3207
 Red. masses --      4.9448                 7.1777                 5.7415
 Frc consts  --      0.0266                 0.0459                 0.1657
 IR Inten    --      2.8386                 0.1254                 1.1248

                      4                      5                      6
                      A                      A                      A
 Frequencies --    259.2387               369.7342               395.3359
 Red. masses --      4.5949                 8.2270                 2.2213
 Frc consts  --      0.1819                 0.6626                 0.2045
 IR Inten    --      0.1695                 0.9546                23.6571

                      7                      8                      9
                      A                      A                      A
 Frequencies --    398.0745               443.9473               483.5306
 Red. masses --      3.0792                 1.2569                 2.0478
 Frc consts  --      0.2875                 0.1459                 0.2821
 IR Inten    --      0.2134               150.7832                 8.9163

                     10                     11                     12
                      A                      A                      A
 Frequencies --    530.6645               533.8814               559.5075
 Red. masses --      1.3412                 5.8811                 1.0642
 Frc consts  --      0.2225                 0.9876                 0.1963
 IR Inten    --    185.3184                11.9869                 0.1239

                     13                     14                     15
                      A                      A                      A
 Frequencies --    609.3607               632.6481               667.0996
 Red. masses --      5.9467                 6.8826                 5.4240
 Frc consts  --      1.3010                 1.6230                 1.4222
 IR Inten    --     26.3060                 4.6095                14.4532

                     16                     17                     18
                      A                      A                      A
 Frequencies --    728.4607               737.1271               811.6464
 Red. masses --      5.2887                 5.3243                 1.2757
 Frc consts  --      1.6535                 1.7045                 0.4951
 IR Inten    --      0.5347                14.7552                 0.3229

                     19                     20                     21
                      A                      A                      A
 Frequencies --    841.6282               855.7064               992.2639
 Red. masses --      5.6136                 1.8346                 1.2966
 Frc consts  --      2.3428                 0.7915                 0.7522
 IR Inten    --     26.9215                67.1945                 0.0778

                     22                     23                     24
                      A                      A                      A
 Frequencies --    997.7320               999.9389              1033.8754
 Red. masses --      1.3047                 3.0841                 3.0569
 Frc consts  --      0.7652                 1.8169                 1.9252
 IR Inten    --      0.1427                 2.7283               183.7425

                     25                     26                     27
                      A                      A                      A
 Frequencies --   1053.3118              1176.9441              1202.1966
 Red. masses --      1.8262                 1.1940                 1.2416
 Frc consts  --      1.1938                 0.9745                 1.0573
 IR Inten    --     80.1168                24.0568               405.6806

                     28                     29                     30
                      A                      A                      A
 Frequencies --   1280.0245              1351.0140              1386.5830
 Red. masses --      1.7819                 1.3759                 2.3103
 Frc consts  --      1.7201                 1.4797                 2.6170
 IR Inten    --    324.4676                28.0377               104.9994

                     31                     32                     33
                      A                      A                      A
 Frequencies --   1416.4878              1423.8984              1540.9350
 Red. masses --      2.5856                 4.3418                 4.8222
 Frc consts  --      3.0566                 5.1865                 6.7463
 IR Inten    --     35.2933                33.9412                86.5366

                     34                     35                     36
                      A                      A                      A
 Frequencies --   1553.3359              1568.3752              1646.6325
 Red. masses --      2.6927                 5.4038                 4.5096
 Frc consts  --      3.8280                 7.8316                 7.2041
 IR Inten    --     50.9910                 5.0314               981.8301

                     37                     38                     39
                      A                      A                      A
 Frequencies --   1682.3362              1709.3780              3213.9217
 Red. masses --      1.5673                 3.4396                 1.0916
 Frc consts  --      2.6135                 5.9215                 6.6430
 IR Inten    --    264.3698                89.2734                 0.2098

                     40                     41                     42
                      A                      A                      A
 Frequencies --   3214.3079              3241.5385              3254.5300
 Red. masses --      1.0923                 1.0954                 1.0948
 Frc consts  --      6.6495                 6.7815                 6.8320
 IR Inten    --      0.0462                 9.6969                 7.9947

                     43                     44                     45
                      A                      A                      A
 Frequencies --   3580.8253              3666.2476              3702.3166
 Red. masses --      1.0475                 1.0665                 1.1057
 Frc consts  --      7.9135                 8.4461                 8.9294
 IR Inten    --    373.9642               366.2256                83.9478

 - Thermochemistry -
 -------------------
 Temperature   298.150 Kelvin.  Pressure   1.00000 Atm.
 Atom     1 has atomic number  6 and mass  12.00000

 Molecular mass:   139.05075 amu.
 Principal axes and moments of inertia in atomic units:
                           1         2         3
     Eigenvalues --   481.022672200.266132681.28879
           X            0.99998  -0.00611  -0.00000
           Y            0.00611   0.99998   0.00000
           Z            0.00000  -0.00000   1.00000
 This molecule is an asymmetric top.
 Rotational symmetry number  1.
 Warning -- assumption of classical behavior for rotation
           may cause significant error
 Rotational temperatures (Kelvin)      0.18006     0.03937     0.03230
 Rotational constants (GHZ):           3.75188     0.82024     0.67309
 Zero-point vibrational energy     347919.7 (Joules/Mol)
                                   83.15480 (Kcal/Mol)
 Warning -- explicit consideration of  13 degrees of freedom as
           vibrations may cause significant error
 Vibrational temperatures:    137.59   149.83   318.43   372.99   531.96
          (Kelvin)            568.80   572.74   638.74   695.69   763.51
                              768.14   805.01   876.73   910.24   959.81
                             1048.09  1060.56  1167.78  1210.91  1231.17
                             1427.64  1435.51  1438.69  1487.51  1515.48
                             1693.36  1729.69  1841.67  1943.81  1994.98
                             2038.01  2048.67  2217.06  2234.90  2256.54
                             2369.13  2420.50  2459.41  4624.11  4624.67
                             4663.85  4682.54  5152.00  5274.91  5326.80

 Zero-point correction=                           0.132516 (Hartree/Particle)
 Thermal correction to Energy=                    0.140978
 Thermal correction to Enthalpy=                  0.141922
 Thermal correction to Gibbs Free Energy=         0.099241
 Sum of electronic and zero-point Energies=           -492.390674
 Sum of electronic and thermal Energies=              -492.382211
 Sum of electronic and thermal Enthalpies=            -492.381267
 Sum of electronic and thermal Free Energies=         -492.423949

                     E (Thermal)             CV                S
                      KCal/Mol        Cal/Mol-Kelvin    Cal/Mol-Kelvin
 Total                   88.465             33.352             89.831
 Electronic               0.000              0.000              0.000
 Translational            0.889              2.981             40.701
 Rotational               0.889              2.981             29.430
 Vibrational             86.688             27.391             19.701
 Vibration     1          0.603              1.952              3.542
 Vibration     2          0.605              1.946              3.375
 Vibration     3          0.648              1.809              1.948
 Vibration     4          0.668              1.747              1.667
 Vibration     5          0.742              1.534              1.081
 Vibration     6          0.762              1.480              0.980
 Vibration     7          0.764              1.474              0.970
 Vibration     8          0.803              1.374              0.814
 Vibration     9          0.840              1.287              0.701
 Vibration    10          0.886              1.182              0.586
 Vibration    11          0.889              1.175              0.579
 Vibration    12          0.915              1.119              0.525
 Vibration    13          0.968              1.012              0.434

 Optimization completed.
    -- Stationary point found.
 Normal termination of Gaussian 09 at Thu Jun 13 22:17:14 2024.
