 Gaussian 09, Revision E.01,
 Gaussian 09:  ES64L-G09RevE.01 30-Nov-2015

 -------------------------------------------------------
 # opt freq b3pw91/6-31+g(d,p) EmpiricalDispersion=GD3BJ
 -------------------------------------------------------

 ----------
 [No Title]
 ----------
 Symbolic Z-matrix:
 Charge =  0 Multiplicity = 1

 SCF Done:  E(RB3PW91) =  -491.984537254     A.U. after   14 cycles
 SCF Done:  E(RB3PW91) =  -491.984542494     A.U. after   11 cycles
 SCF Done:  E(RB3PW91) =  -491.984486129     A.U. after   11 cycles
 SCF Done:  E(RB3PW91) =  -491.984544680     A.U. after   12 cycles
 Optimization completed.
    -- Stationary point found.
 Normal termination of Gaussian 09 at Thu Dec 19 00:16:10 2024.

 ----------------------------------------------------------------------
 #N Geom=AllCheck Guess=TCheck SCRF=Check GenChk RB3PW91/6-31+G(d,p) Fr
 eq
 ----------------------------------------------------------------------

 Structure from the checkpoint file:  "B3PW91D3BJPNA.chk"
 ----------
 [No Title]
 ----------
 Charge =  0 Multiplicity = 1

                         Standard orientation:
 ---------------------------------------------------------------------
 Center     Atomic      Atomic             Coordinates (Angstroms)
 Number     Number       Type             X           Y           Z
 ---------------------------------------------------------------------
      1          6           0       -0.023084   -1.214033    0.000021
      2          6           0       -0.711081    0.000000   -0.000010
      3          6           0       -0.023084    1.214033   -0.000050
      4          6           0        1.359643    1.214156   -0.000058
      5          6           0        2.077892    0.000000   -0.000027
      6          6           0        1.359643   -1.214156    0.000013
      7          7           0        3.442374    0.000000   -0.000040
      8          7           0       -2.159298    0.000000    0.000000
      9          8           0       -2.735883    1.087029    0.000033
     10          8           0       -2.735883   -1.087029    0.000100
     11          1           0       -0.584042   -2.141000    0.000052
     12          1           0       -0.584042    2.141000   -0.000073
     13          1           0        1.899074    2.157031   -0.000089
     14          1           0        1.899074   -2.157031    0.000037
     15          1           0        3.961475   -0.860445    0.000003
     16          1           0        3.961475    0.860445   -0.000049
 ---------------------------------------------------------------------

 SCF Done:  E(RB3PW91) =  -491.984544680     A.U. after    1 cycles

 The electronic state is 1-A.
 Alpha  occ. eigenvalues --  -19.16729 -19.16728 -14.55728 -14.37597 -10.26045
 Alpha  occ. eigenvalues --  -10.23242 -10.21156 -10.21156 -10.20454 -10.20453
 Alpha  occ. eigenvalues --   -1.22837  -1.05282  -0.96723  -0.88852  -0.80283
 Alpha  occ. eigenvalues --   -0.78324  -0.70240  -0.65232  -0.60881  -0.56865
 Alpha  occ. eigenvalues --   -0.55987  -0.54501  -0.53176  -0.50846  -0.47096
 Alpha  occ. eigenvalues --   -0.46331  -0.45154  -0.42754  -0.42162  -0.37285
 Alpha  occ. eigenvalues --   -0.34903  -0.30972  -0.30780  -0.28822  -0.28568
 Alpha  occ. eigenvalues --   -0.23938
 Alpha virt. eigenvalues --   -0.08657  -0.03550  -0.00769   0.00437   0.01778
 Alpha virt. eigenvalues --    0.02173   0.04699   0.05270   0.06893   0.07154
 Alpha virt. eigenvalues --    0.08453   0.09300   0.09539   0.10022   0.11490

 Mulliken charges:
               1
     1  C    0.077317
     2  C   -0.546439
     3  C    0.077317
     4  C    0.086290
     5  C   -0.125605
     6  C    0.086290
     7  N   -0.626749
     8  N   -0.176784
     9  O   -0.080042
    10  O   -0.080042
    11  H    0.190378
    12  H    0.190378
    13  H    0.144182
    14  H    0.144182
    15  H    0.319662
    16  H    0.319662
 Sum of Mulliken charges =  -0.00000

 Dipole moment (field-independent basis, Debye):
    X=              7.8637    Y=              0.0000    Z=             -0.0001  Tot=              7.8637
 Quadrupole moment (field-independent basis, Debye-Ang):
   XX=            -55.7476   YY=            -52.4381   ZZ=            -60.3828
   XY=             -0.0000   XZ=              0.0007   YZ=             -0.0002

  Exact polarizability: 154.881   0.000  97.956  -0.002  -0.001  49.289
 Approx polarizability: 250.108  -0.000 180.306  -0.003  -0.003  70.715

 ******    1 imaginary frequencies (negative Signs) ******

                      1                      2                      3
                      A                      A                      A
 Frequencies --   -252.9192                71.3107               109.1776
 Red. masses --      1.2326                 7.6853                 5.8506
 Frc consts  --      0.0465                 0.0230                 0.0411
 IR Inten    --    231.4845                 0.0000                 0.0032

                      4                      5                      6
                      A                      A                      A
 Frequencies --    225.2745               286.1404               366.3511
 Red. masses --      6.4483                 5.5871                 9.4061
 Frc consts  --      0.1928                 0.2695                 0.7438
 IR Inten    --      0.2504                 3.5817                 0.0013

                      7                      8                      9
                      A                      A                      A
 Frequencies --    389.9547               411.0408               424.8980
 Red. masses --      3.0315                 1.1068                 2.4631
 Frc consts  --      0.2716                 0.1102                 0.2620
 IR Inten    --      1.0959                 0.0000                 0.0000

                     10                     11                     12
                      A                      A                      A
 Frequencies --    494.3137               542.0465               645.3581
 Red. masses --      2.6804                 6.9102                 6.8347
 Frc consts  --      0.3859                 1.1962                 1.6772
 IR Inten    --     19.9680                 2.5288                 1.0105

                     13                     14                     15
                      A                      A                      A
 Frequencies --    645.7549               691.6212               756.4741
 Red. masses --      6.9518                 3.2521                 7.7513
 Frc consts  --      1.7080                 0.9165                 2.6135
 IR Inten    --     15.3476                11.0026                22.5694

                     16                     17                     18
                      A                      A                      A
 Frequencies --    816.0619               830.3159               844.6285
 Red. masses --      1.2597                 6.0679                 1.9353
 Frc consts  --      0.4943                 2.4647                 0.8135
 IR Inten    --      0.0000                 1.8417                46.3844

                     19                     20                     21
                      A                      A                      A
 Frequencies --    882.4172               972.4325               980.3589
 Red. masses --      8.0367                 1.2826                 1.3278
 Frc consts  --      3.6870                 0.7146                 0.7519
 IR Inten    --     22.0204                 1.8432                 0.0000

                     22                     23                     24
                      A                      A                      A
 Frequencies --   1020.9021              1040.9481              1144.8158
 Red. masses --      2.7179                 1.3994                 1.1537
 Frc consts  --      1.6690                 0.8934                 0.8909
 IR Inten    --      1.3506                 0.1307                16.3268

                     25                     26                     27
                      A                      A                      A
 Frequencies --   1145.4873              1211.6978              1326.1774
 Red. masses --      2.0899                 1.4742                 1.3204
 Frc consts  --      1.6157                 1.2753                 1.3682
 IR Inten    --    142.1223                10.3929                 0.1284

                     28                     29                     30
                      A                      A                      A
 Frequencies --   1358.9040              1403.4054              1410.2977
 Red. masses --      2.9683                10.8048                 7.6196
 Frc consts  --      3.2295                12.5381                 8.9290
 IR Inten    --    219.4390               632.2681                 0.7267

                     31                     32                     33
                      A                      A                      A
 Frequencies --   1490.8085              1549.7445              1609.9882
 Red. masses --      3.7088                 2.7692                10.3855
 Frc consts  --      4.8566                 3.9185                15.8607
 IR Inten    --      1.3348                42.9094               133.5815

                     34                     35                     36
                      A                      A                      A
 Frequencies --   1655.1330              1663.1729              1679.8538
 Red. masses --      1.5193                 9.1503                 3.2806
 Frc consts  --      2.4522                14.9128                 5.4544
 IR Inten    --      5.6326               150.6238               456.6223

                     37                     38                     39
                      A                      A                      A
 Frequencies --   3201.8289              3202.4316              3250.4818
 Red. masses --      1.0906                 1.0904                 1.0930
 Frc consts  --      6.5875                 6.5887                 6.8037
 IR Inten    --      9.7231                12.1831                 0.3316

                     40                     41                     42
                      A                      A                      A
 Frequencies --   3250.6261              3658.7916              3789.0692
 Red. masses --      1.0936                 1.0459                 1.1050
 Frc consts  --      6.8084                 8.2490                 9.3474
 IR Inten    --      3.9076               123.9845                45.9369

 - Thermochemistry -
 -------------------
 Temperature   298.150 Kelvin.  Pressure   1.00000 Atm.
 Atom     1 has atomic number  6 and mass  12.00000

 Molecular mass:   138.04293 amu.
 Principal axes and moments of inertia in atomic units:
                           1         2         3
     Eigenvalues --   459.466072184.528902643.99497
           X            1.00000   0.00000   0.00002
           Y           -0.00000   1.00000   0.00003
           Z           -0.00002  -0.00003   1.00000
 This molecule is an asymmetric top.
 Rotational symmetry number  1.
 Warning -- assumption of classical behavior for rotation
           may cause significant error
 Rotational temperatures (Kelvin)      0.18851     0.03965     0.03276
 Rotational constants (GHZ):           3.92791     0.82615     0.68258
    1 imaginary frequencies ignored.
 Zero-point vibrational energy     313723.6 (Joules/Mol)
                                   74.98175 (Kcal/Mol)
 Warning -- explicit consideration of  10 degrees of freedom as
           vibrations may cause significant error
 Vibrational temperatures:    102.60   157.08   324.12   411.69   527.10
          (Kelvin)            561.06   591.40   611.33   711.21   779.88
                              928.53   929.10   995.09  1088.40  1174.13
                             1194.64  1215.23  1269.60  1399.11  1410.52
                             1468.85  1497.69  1647.13  1648.10  1743.36
                             1908.07  1955.16  2019.18  2029.10  2144.94
                             2229.73  2316.41  2381.36  2392.93  2416.93
                             4606.71  4607.58  4676.71  4676.92  5264.18
                             5451.62

 Zero-point correction=                           0.119491 (Hartree/Particle)
 Thermal correction to Energy=                    0.127468
 Thermal correction to Enthalpy=                  0.128413
 Thermal correction to Gibbs Free Energy=         0.086295
 Sum of electronic and zero-point Energies=           -491.865054
 Sum of electronic and thermal Energies=              -491.857076
 Sum of electronic and thermal Enthalpies=            -491.856132
 Sum of electronic and thermal Free Energies=         -491.898250

                     E (Thermal)             CV                S
                      KCal/Mol        Cal/Mol-Kelvin    Cal/Mol-Kelvin
 Total                   79.988             30.425             88.644
 Electronic               0.000              0.000              0.000
 Translational            0.889              2.981             40.679
 Rotational               0.889              2.981             29.363
 Vibrational             78.210             24.464             18.601
 Vibration     1          0.598              1.968              4.117
 Vibration     2          0.606              1.942              3.283
 Vibration     3          0.650              1.803              1.916
 Vibration     4          0.684              1.699              1.497
 Vibration     5          0.739              1.541              1.095
 Vibration     6          0.758              1.492              1.000
 Vibration     7          0.775              1.446              0.923
 Vibration     8          0.787              1.416              0.875
 Vibration     9          0.850              1.263              0.672
 Vibration    10          0.897              1.157              0.561

 Optimization completed.
    -- Stationary point found.
 Normal termination of Gaussian 09 at Thu Dec 19 00:16:41 2024.
