 Gaussian 09, Revision E.01,
 Gaussian 09:  ES64L-G09RevE.01 30-Nov-2015

 -------------------------------------------------------
 # opt freq b3pw91/6-31+g(d,p) EmpiricalDispersion=GD3BJ
 -------------------------------------------------------

 ----------
 [No Title]
 ----------
 Symbolic Z-matrix:
 Charge =  1 Multiplicity = 1

 SCF Done:  E(RB3PW91) =  -492.334338232     A.U. after   17 cycles
 SCF Done:  E(RB3PW91) =  -492.334347055     A.U. after   10 cycles
 SCF Done:  E(RB3PW91) =  -492.334347736     A.U. after    9 cycles
 SCF Done:  E(RB3PW91) =  -492.334347823     A.U. after    9 cycles
 Optimization completed.
    -- Stationary point found.
 Normal termination of Gaussian 09 at Thu Dec 19 11:05:47 2024.

 ----------------------------------------------------------------------
 #N Geom=AllCheck Guess=TCheck SCRF=Check GenChk RB3PW91/6-31+G(d,p) Fr
 eq
 ----------------------------------------------------------------------

 Structure from the checkpoint file:  "B3PW91D3BJPNAyang.chk"
 ----------
 [No Title]
 ----------
 Charge =  1 Multiplicity = 1

                         Standard orientation:
 ---------------------------------------------------------------------
 Center     Atomic      Atomic             Coordinates (Angstroms)
 Number     Number       Type             X           Y           Z
 ---------------------------------------------------------------------
      1          6           0       -0.057070    1.260395    0.000068
      2          6           0        0.666483    0.036631    0.000180
      3          6           0       -0.005915   -1.215565    0.000121
      4          6           0       -1.370104   -1.236982    0.000034
      5          6           0       -2.115399   -0.017645   -0.000034
      6          6           0       -1.419893    1.231312   -0.000017
      7          7           0       -3.447625   -0.044115   -0.000111
      8          7           0        2.028551    0.107242    0.000275
      9          8           0        2.663310   -1.095461   -0.000207
     10          8           0        2.701825    1.114305   -0.000130
     11          1           0        0.483557    2.200196    0.000089
     12          1           0        0.558434   -2.139836    0.000173
     13          1           0       -1.897490   -2.185370    0.000022
     14          1           0       -1.983975    2.158381   -0.000063
     15          1           0       -3.992245    0.806520   -0.000159
     16          1           0       -3.958635   -0.915319   -0.000124
     17          1           0        3.614173   -0.866090   -0.000502
 ---------------------------------------------------------------------

 SCF Done:  E(RB3PW91) =  -492.334347823     A.U. after    1 cycles

 The electronic state is 1-A.
 Alpha  occ. eigenvalues --  -19.41153 -19.37537 -14.74817 -14.54748 -10.43533
 Alpha  occ. eigenvalues --  -10.41758 -10.38238 -10.38058 -10.36757 -10.36739
 Alpha  occ. eigenvalues --   -1.42660  -1.26471  -1.14006  -1.08361  -1.00619
 Alpha  occ. eigenvalues --   -0.95196  -0.89300  -0.83158  -0.80618  -0.75969
 Alpha  occ. eigenvalues --   -0.74013  -0.72293  -0.72266  -0.71093  -0.65029
 Alpha  occ. eigenvalues --   -0.62799  -0.61983  -0.61205  -0.59434  -0.58714
 Alpha  occ. eigenvalues --   -0.53768  -0.53377  -0.51634  -0.49996  -0.45198
 Alpha  occ. eigenvalues --   -0.40968
 Alpha virt. eigenvalues --   -0.29075  -0.19026  -0.16349  -0.12676  -0.11858
 Alpha virt. eigenvalues --   -0.09775  -0.09175  -0.08346  -0.06704  -0.06444
 Alpha virt. eigenvalues --   -0.05856  -0.04518  -0.04287  -0.03302  -0.02466

 Mulliken charges:
               1
     1  C    0.091183
     2  C   -0.674362
     3  C    0.304713
     4  C    0.079400
     5  C   -0.080799
     6  C    0.133873
     7  N   -0.531983
     8  N   -0.265426
     9  O   -0.029107
    10  O    0.037447
    11  H    0.220662
    12  H    0.220018
    13  H    0.190798
    14  H    0.192421
    15  H    0.356561
    16  H    0.356283
    17  H    0.398318
 Sum of Mulliken charges =   1.00000

 Dipole moment (field-independent basis, Debye):
    X=             -3.6272    Y=             -1.1107    Z=             -0.0003  Tot=              3.7934
 Quadrupole moment (field-independent basis, Debye-Ang):
   XX=             -7.5921   YY=            -44.1049   ZZ=            -58.3277
   XY=             -4.7314   XZ=             -0.0006   YZ=              0.0004

  Exact polarizability: 193.063   5.222  87.194   0.000  -0.001  44.079
 Approx polarizability: 443.290  33.984 148.572   0.005  -0.002  63.998

                      1                      2                      3
                      A                      A                      A
 Frequencies --     94.9425               103.6040               220.4692
 Red. masses --      4.9249                 7.1814                 5.7336
 Frc consts  --      0.0262                 0.0454                 0.1642
 IR Inten    --      3.2333                 0.0901                 1.1910

                      4                      5                      6
                      A                      A                      A
 Frequencies --    258.3858               370.1521               395.1809
 Red. masses --      4.5664                 8.2132                 2.3463
 Frc consts  --      0.1796                 0.6630                 0.2159
 IR Inten    --      0.0990                 0.8686                16.4493

                      7                      8                      9
                      A                      A                      A
 Frequencies --    396.7057               450.4575               484.4631
 Red. masses --      3.0430                 1.2898                 1.8875
 Frc consts  --      0.2822                 0.1542                 0.2610
 IR Inten    --      0.3030               162.8670                 2.0886

                     10                     11                     12
                      A                      A                      A
 Frequencies --    530.9950               537.9563               559.6960
 Red. masses --      1.3325                 5.9341                 1.0641
 Frc consts  --      0.2214                 1.0118                 0.1964
 IR Inten    --    190.2529                11.2982                 0.1540

                     13                     14                     15
                      A                      A                      A
 Frequencies --    615.7334               630.2727               675.7662
 Red. masses --      5.9219                 6.8250                 4.9768
 Frc consts  --      1.3228                 1.5974                 1.3390
 IR Inten    --     30.5869                 4.1988                16.3273

                     16                     17                     18
                      A                      A                      A
 Frequencies --    728.9112               747.5516               810.2521
 Red. masses --      5.9992                 5.0784                 1.2773
 Frc consts  --      1.8780                 1.6721                 0.4941
 IR Inten    --      1.3479                 7.2766                 0.4218

                     19                     20                     21
                      A                      A                      A
 Frequencies --    848.3387               853.0393               989.1878
 Red. masses --      5.6404                 1.8414                 1.2831
 Frc consts  --      2.3917                 0.7895                 0.7397
 IR Inten    --     23.2236                70.3490                 0.1506

                     22                     23                     24
                      A                      A                      A
 Frequencies --    995.7429              1001.5433              1045.8628
 Red. masses --      1.3120                 2.9544                 1.6144
 Frc consts  --      0.7664                 1.7461                 1.0404
 IR Inten    --      0.1303                 1.3495                35.2347

                     25                     26                     27
                      A                      A                      A
 Frequencies --   1069.9708              1174.8021              1202.7933
 Red. masses --      3.8257                 1.1723                 1.1976
 Frc consts  --      2.5805                 0.9533                 1.0208
 IR Inten    --    223.2356                18.9846               364.4339

                     28                     29                     30
                      A                      A                      A
 Frequencies --   1285.4461              1346.0850              1401.5513
 Red. masses --      1.7621                 1.3491                 2.0175
 Frc consts  --      1.7155                 1.4403                 2.3350
 IR Inten    --    372.6063                26.8680                88.2981

                     31                     32                     33
                      A                      A                      A
 Frequencies --   1427.8919              1438.4938              1553.3878
 Red. masses --      3.1105                 4.3178                 5.0663
 Frc consts  --      3.7365                 5.2642                 7.2029
 IR Inten    --     14.4794                47.9582                80.8733

                     34                     35                     36
                      A                      A                      A
 Frequencies --   1563.1360              1580.7440              1665.8949
 Red. masses --      2.7113                 5.8948                 4.6369
 Frc consts  --      3.9032                 8.6785                 7.5818
 IR Inten    --     33.0441                 9.1747               790.9925

                     37                     38                     39
                      A                      A                      A
 Frequencies --   1687.6343              1728.9585              3225.1660
 Red. masses --      1.5212                 4.8029                 1.0917
 Frc consts  --      2.5527                 8.4591                 6.6905
 IR Inten    --    556.0779                59.2923                 0.3258

                     40                     41                     42
                      A                      A                      A
 Frequencies --   3225.3740              3249.8460              3261.5063
 Red. masses --      1.0922                 1.0960                 1.0953
 Frc consts  --      6.6943                 6.8199                 6.8647
 IR Inten    --      0.0185                10.2676                 8.4834

                     43                     44                     45
                      A                      A                      A
 Frequencies --   3603.4270              3694.6688              3728.2300
 Red. masses --      1.0476                 1.0663                 1.1057
 Frc consts  --      8.0148                 8.5758                 9.0549
 IR Inten    --    376.8870               377.2948                87.9208

 - Thermochemistry -
 -------------------
 Temperature   298.150 Kelvin.  Pressure   1.00000 Atm.
 Atom     1 has atomic number  6 and mass  12.00000

 Molecular mass:   139.05075 amu.
 Principal axes and moments of inertia in atomic units:
                           1         2         3
     Eigenvalues --   477.972832188.677142666.64994
           X            0.99998  -0.00610  -0.00000
           Y            0.00610   0.99998  -0.00000
           Z            0.00000   0.00000   1.00000
 This molecule is an asymmetric top.
 Rotational symmetry number  1.
 Warning -- assumption of classical behavior for rotation
           may cause significant error
 Rotational temperatures (Kelvin)      0.18121     0.03957     0.03248
 Rotational constants (GHZ):           3.77582     0.82458     0.67678
 Zero-point vibrational energy     349669.8 (Joules/Mol)
                                   83.57308 (Kcal/Mol)
 Warning -- explicit consideration of  13 degrees of freedom as
           vibrations may cause significant error
 Vibrational temperatures:    136.60   149.06   317.21   371.76   532.57
          (Kelvin)            568.58   570.77   648.11   697.03   763.98
                              774.00   805.28   885.90   906.82   972.28
                             1048.74  1075.56  1165.77  1220.57  1227.33
                             1423.22  1432.65  1441.00  1504.76  1539.45
                             1690.28  1730.55  1849.47  1936.71  2016.52
                             2054.42  2069.67  2234.98  2249.00  2274.34
                             2396.85  2428.13  2487.58  4640.29  4640.59
                             4675.80  4692.57  5184.52  5315.80  5364.08

 Zero-point correction=                           0.133182 (Hartree/Particle)
 Thermal correction to Energy=                    0.141626
 Thermal correction to Enthalpy=                  0.142570
 Thermal correction to Gibbs Free Energy=         0.099913
 Sum of electronic and zero-point Energies=           -492.201166
 Sum of electronic and thermal Energies=              -492.192722
 Sum of electronic and thermal Enthalpies=            -492.191778
 Sum of electronic and thermal Free Energies=         -492.234435

                     E (Thermal)             CV                S
                      KCal/Mol        Cal/Mol-Kelvin    Cal/Mol-Kelvin
 Total                   88.872             33.232             89.779
 Electronic               0.000              0.000              0.000
 Translational            0.889              2.981             40.701
 Rotational               0.889              2.981             29.413
 Vibrational             87.094             27.270             19.665
 Vibration     1          0.603              1.953              3.556
 Vibration     2          0.605              1.946              3.385
 Vibration     3          0.647              1.810              1.955
 Vibration     4          0.667              1.749              1.673
 Vibration     5          0.742              1.534              1.079
 Vibration     6          0.762              1.480              0.981
 Vibration     7          0.763              1.477              0.975
 Vibration     8          0.809              1.360              0.794
 Vibration     9          0.841              1.285              0.698
 Vibration    10          0.886              1.181              0.585
 Vibration    11          0.893              1.166              0.570
 Vibration    12          0.915              1.119              0.524
 Vibration    13          0.975              0.999              0.423

 Optimization completed.
    -- Stationary point found.
 Normal termination of Gaussian 09 at Thu Dec 19 11:06:25 2024.
