 Gaussian 09, Revision E.01,
 Gaussian 09:  ES64L-G09RevE.01 30-Nov-2015

 -----------------------------------------
 # opt freq cam-b3lyp/6-31+g(d,p) em=gd3bj
 -----------------------------------------

 ----------
 [No Title]
 ----------
 Symbolic Z-matrix:
 Charge =  1 Multiplicity = 1

 SCF Done:  E(RCAM-B3LYP) =  -492.268773801     A.U. after   16 cycles
 SCF Done:  E(RCAM-B3LYP) =  -492.269312261     A.U. after   12 cycles
 SCF Done:  E(RCAM-B3LYP) =  -492.269336724     A.U. after   10 cycles
 SCF Done:  E(RCAM-B3LYP) =  -492.269339310     A.U. after   10 cycles
 SCF Done:  E(RCAM-B3LYP) =  -492.269339699     A.U. after    9 cycles
 SCF Done:  E(RCAM-B3LYP) =  -492.269339683     A.U. after   10 cycles
 Optimization completed.
    -- Stationary point found.
 Normal termination of Gaussian 09 at Thu Jun 13 22:25:37 2024.

 ----------------------------------------------------------------------
 #N Geom=AllCheck Guess=TCheck SCRF=Check GenChk RCAM-B3LYP/6-31+G(d,p)
  Freq
 ----------------------------------------------------------------------

 Structure from the checkpoint file:  "camb3lypPNAyang.chk"
 ----------
 [No Title]
 ----------
 Charge =  1 Multiplicity = 1

                         Standard orientation:
 ---------------------------------------------------------------------
 Center     Atomic      Atomic             Coordinates (Angstroms)
 Number     Number       Type             X           Y           Z
 ---------------------------------------------------------------------
      1          6           0        0.059273    1.260613    0.000096
      2          6           0       -0.666539    0.036942    0.000264
      3          6           0        0.007672   -1.215903    0.000176
      4          6           0        1.366572   -1.237323    0.000036
      5          6           0        2.111288   -0.017627   -0.000072
      6          6           0        1.417122    1.231660   -0.000042
      7          7           0        3.440407   -0.044810   -0.000201
      8          7           0       -2.022376    0.105730    0.000417
      9          8           0       -2.661231   -1.089524   -0.000262
     10          8           0       -2.696666    1.109767   -0.000158
     11          1           0       -0.481116    2.199821    0.000131
     12          1           0       -0.557429   -2.139001    0.000262
     13          1           0        1.896249   -2.183444    0.000012
     14          1           0        1.983643    2.156216   -0.000120
     15          1           0        3.985713    0.805991   -0.000279
     16          1           0        3.951017   -0.916840   -0.000225
     17          1           0       -3.613453   -0.861300   -0.000675
 ---------------------------------------------------------------------

 SCF Done:  E(RCAM-B3LYP) =  -492.269339683     A.U. after    1 cycles

 The electronic state is 1-A.
 Alpha  occ. eigenvalues --  -19.49744 -19.46127 -14.84228 -14.62786 -10.52469
 Alpha  occ. eigenvalues --  -10.50114 -10.46987 -10.46792 -10.45047 -10.45005
 Alpha  occ. eigenvalues --   -1.50994  -1.34313  -1.21775  -1.16410  -1.08426
 Alpha  occ. eigenvalues --   -1.03016  -0.96574  -0.90459  -0.87807  -0.82996
 Alpha  occ. eigenvalues --   -0.81116  -0.79922  -0.79124  -0.77734  -0.71944
 Alpha  occ. eigenvalues --   -0.69302  -0.68614  -0.67842  -0.65968  -0.65478
 Alpha  occ. eigenvalues --   -0.60465  -0.59522  -0.57619  -0.56653  -0.50657
 Alpha  occ. eigenvalues --   -0.45386
 Alpha virt. eigenvalues --   -0.24969  -0.13891  -0.11176  -0.10405  -0.09339
 Alpha virt. eigenvalues --   -0.07733  -0.06703  -0.05910  -0.04671  -0.04183
 Alpha virt. eigenvalues --   -0.02903  -0.01829  -0.01500  -0.01046  -0.00599

 Mulliken charges:
               1
     1  C   -0.066150
     2  C   -0.379729
     3  C    0.187924
     4  C   -0.006101
     5  C    0.298629
     6  C    0.019603
     7  N   -0.579628
     8  N   -0.321419
     9  O   -0.037698
    10  O    0.024463
    11  H    0.206343
    12  H    0.204693
    13  H    0.173028
    14  H    0.174833
    15  H    0.349635
    16  H    0.349305
    17  H    0.402269
 Sum of Mulliken charges =   1.00000

 Dipole moment (field-independent basis, Debye):
    X=              3.4877    Y=             -1.1325    Z=             -0.0005  Tot=              3.6669
 Quadrupole moment (field-independent basis, Debye-Ang):
   XX=             -8.9923   YY=            -44.9965   ZZ=            -58.7490
   XY=              4.8151   XZ=              0.0003   YZ=              0.0006

  Exact polarizability: 196.680  -6.356  86.166  -0.002  -0.001  44.657
 Approx polarizability: 260.892 -18.510 113.529  -0.006  -0.002  56.616

                      1                      2                      3
                      A                      A                      A
 Frequencies --     96.1666               107.4416               224.0383
 Red. masses --      4.9379                 7.2398                 5.7253
 Frc consts  --      0.0269                 0.0492                 0.1693
 IR Inten    --      2.9686                 0.0547                 1.1399

                      4                      5                      6
                      A                      A                      A
 Frequencies --    258.3051               373.7975               402.1728
 Red. masses --      4.5819                 8.2251                 3.0346
 Frc consts  --      0.1801                 0.6771                 0.2892
 IR Inten    --      0.1153                 2.0386                 0.2133

                      7                      8                      9
                      A                      A                      A
 Frequencies --    402.6317               457.0593               490.4009
 Red. masses --      2.3540                 1.3005                 1.8987
 Frc consts  --      0.2248                 0.1601                 0.2690
 IR Inten    --     17.2588               165.9557                 0.2802

                     10                     11                     12
                      A                      A                      A
 Frequencies --    543.8506               558.5479               572.4322
 Red. masses --      5.8814                 1.3054                 1.0597
 Frc consts  --      1.0249                 0.2400                 0.2046
 IR Inten    --     10.9546               196.6056                 0.3672

                     13                     14                     15
                      A                      A                      A
 Frequencies --    623.6008               637.4460               691.4300
 Red. masses --      5.9102                 6.8450                 4.3905
 Frc consts  --      1.3541                 1.6387                 1.2367
 IR Inten    --     42.3224                 4.5000                14.0201

                     16                     17                     18
                      A                      A                      A
 Frequencies --    744.9570               756.9992               824.6437
 Red. masses --      6.3951                 4.9942                 1.2753
 Frc consts  --      2.0910                 1.6862                 0.5110
 IR Inten    --      4.6458                12.1215                 0.3651

                     19                     20                     21
                      A                      A                      A
 Frequencies --    852.2814               869.6577              1009.5214
 Red. masses --      5.6310                 1.8774                 2.8875
 Frc consts  --      2.4099                 0.8366                 1.7338
 IR Inten    --     43.1039                73.4528                 1.3414

                     22                     23                     24
                      A                      A                      A
 Frequencies --   1013.5520              1019.7951              1053.9540
 Red. masses --      1.2956                 1.3230                 1.5201
 Frc consts  --      0.7842                 0.8107                 0.9948
 IR Inten    --      0.0620                 0.0656                17.1696

                     25                     26                     27
                      A                      A                      A
 Frequencies --   1088.7175              1185.2430              1206.5327
 Red. masses --      4.6180                 1.1741                 1.2266
 Frc consts  --      3.2251                 0.9718                 1.0520
 IR Inten    --    247.0651                34.5817               609.7828

                     28                     29                     30
                      A                      A                      A
 Frequencies --   1294.1307              1359.7275              1412.0280
 Red. masses --      1.6945                 1.3591                 2.0973
 Frc consts  --      1.6720                 1.4805                 2.4637
 IR Inten    --    512.3266                35.0605               121.8419

                     31                     32                     33
                      A                      A                      A
 Frequencies --   1435.5415              1450.1178              1566.7352
 Red. masses --      3.5280                 3.7630                 4.4987
 Frc consts  --      4.2837                 4.6622                 6.5062
 IR Inten    --      3.6332                99.1500               152.3166

                     34                     35                     36
                      A                      A                      A
 Frequencies --   1577.5292              1602.5736              1669.1066
 Red. masses --      2.6843                 5.7162                 4.7712
 Frc consts  --      3.9359                 8.6496                 7.8316
 IR Inten    --     25.2836                14.6796              1440.7277

                     37                     38                     39
                      A                      A                      A
 Frequencies --   1697.4616              1747.5213              3235.6098
 Red. masses --      1.5027                 5.1643                 1.0921
 Frc consts  --      2.5510                 9.2919                 6.7364
 IR Inten    --    336.6129                65.0836                 0.4253

                     40                     41                     42
                      A                      A                      A
 Frequencies --   3236.1473              3259.2323              3270.9499
 Red. masses --      1.0929                 1.0967                 1.0959
 Frc consts  --      6.7437                 6.8638                 6.9086
 IR Inten    --      0.1780                12.1389                 9.7844

                     43                     44                     45
                      A                      A                      A
 Frequencies --   3604.0421              3694.0724              3725.0657
 Red. masses --      1.0476                 1.0663                 1.1060
 Frc consts  --      8.0174                 8.5735                 9.0420
 IR Inten    --    415.6808               408.9242                92.0108

 - Thermochemistry -
 -------------------
 Temperature   298.150 Kelvin.  Pressure   1.00000 Atm.
 Atom     1 has atomic number  6 and mass  12.00000

 Molecular mass:   139.05075 amu.
 Principal axes and moments of inertia in atomic units:
                           1         2         3
     Eigenvalues --   476.670212180.782442657.45260
           X            0.99998   0.00608   0.00001
           Y           -0.00608   0.99998  -0.00000
           Z           -0.00001   0.00000   1.00000
 This molecule is an asymmetric top.
 Rotational symmetry number  1.
 Warning -- assumption of classical behavior for rotation
           may cause significant error
 Rotational temperatures (Kelvin)      0.18171     0.03972     0.03259
 Rotational constants (GHZ):           3.78614     0.82757     0.67912
 Zero-point vibrational energy     352316.8 (Joules/Mol)
                                   84.20573 (Kcal/Mol)
 Warning -- explicit consideration of  12 degrees of freedom as
           vibrations may cause significant error
 Vibrational temperatures:    138.36   154.58   322.34   371.64   537.81
          (Kelvin)            578.64   579.30   657.61   705.58   782.48
                              803.62   823.60   897.22   917.14   994.81
                             1071.83  1089.15  1186.48  1226.24  1251.24
                             1452.47  1458.27  1467.26  1516.40  1566.42
                             1705.30  1735.93  1861.96  1956.34  2031.59
                             2065.42  2086.39  2254.18  2269.71  2305.74
                             2401.47  2442.27  2514.29  4655.32  4656.09
                             4689.30  4706.16  5185.41  5314.94  5359.53

 Zero-point correction=                           0.134190 (Hartree/Particle)
 Thermal correction to Energy=                    0.142517
 Thermal correction to Enthalpy=                  0.143461
 Thermal correction to Gibbs Free Energy=         0.101022
 Sum of electronic and zero-point Energies=           -492.135149
 Sum of electronic and thermal Energies=              -492.126823
 Sum of electronic and thermal Enthalpies=            -492.125879
 Sum of electronic and thermal Free Energies=         -492.168318

                     E (Thermal)             CV                S
                      KCal/Mol        Cal/Mol-Kelvin    Cal/Mol-Kelvin
 Total                   89.430             32.767             89.320
 Electronic               0.000              0.000              0.000
 Translational            0.889              2.981             40.701
 Rotational               0.889              2.981             29.403
 Vibrational             87.653             26.806             19.216
 Vibration     1          0.603              1.952              3.531
 Vibration     2          0.606              1.943              3.315
 Vibration     3          0.649              1.804              1.926
 Vibration     4          0.667              1.749              1.673
 Vibration     5          0.745              1.526              1.064
 Vibration     6          0.768              1.465              0.955
 Vibration     7          0.768              1.464              0.953
 Vibration     8          0.815              1.345              0.775
 Vibration     9          0.846              1.271              0.683
 Vibration    10          0.899              1.153              0.557
 Vibration    11          0.914              1.121              0.527
 Vibration    12          0.929              1.091              0.500

 Optimization completed.
    -- Stationary point found.
 Normal termination of Gaussian 09 at Thu Jun 13 22:27:10 2024.
