 Gaussian 09, Revision E.01,
 Gaussian 09:  ES64L-G09RevE.01 30-Nov-2015

 -----------------------------------------
 # opt freq cam-b3lyp/6-31+g(d,p) em=gd3bj
 -----------------------------------------

 ----------
 [No Title]
 ----------
 Symbolic Z-matrix:
 Charge =  0 Multiplicity = 1

 SCF Done:  E(RCAM-B3LYP) =  -491.927353405     A.U. after   16 cycles
 SCF Done:  E(RCAM-B3LYP) =  -491.927782845     A.U. after   13 cycles
 SCF Done:  E(RCAM-B3LYP) =  -491.925266871     A.U. after   13 cycles
 SCF Done:  E(RCAM-B3LYP) =  -491.927816681     A.U. after   10 cycles
 SCF Done:  E(RCAM-B3LYP) =  -491.927835764     A.U. after   11 cycles
 SCF Done:  E(RCAM-B3LYP) =  -491.927836931     A.U. after   10 cycles
 Optimization completed.
    -- Stationary point found.
 Normal termination of Gaussian 09 at Thu Jun 13 21:51:31 2024.

 ----------------------------------------------------------------------
 #N Geom=AllCheck Guess=TCheck SCRF=Check GenChk RCAM-B3LYP/6-31+G(d,p)
  Freq
 ----------------------------------------------------------------------

 Structure from the checkpoint file:  "camb3lypPNA.chk"
 ----------
 [No Title]
 ----------
 Charge =  0 Multiplicity = 1

                         Standard orientation:
 ---------------------------------------------------------------------
 Center     Atomic      Atomic             Coordinates (Angstroms)
 Number     Number       Type             X           Y           Z
 ---------------------------------------------------------------------
      1          6           0        0.022493   -1.211584    0.000010
      2          6           0        0.707012    0.000000    0.000051
      3          6           0        0.022493    1.211584    0.000081
      4          6           0       -1.358353    1.211161    0.000071
      5          6           0       -2.073773    0.000000    0.000030
      6          6           0       -1.358353   -1.211160    0.000000
      7          7           0       -3.440696   -0.000000    0.000024
      8          7           0        2.158636    0.000000    0.000059
      9          8           0        2.734784    1.082832   -0.000105
     10          8           0        2.734783   -1.082832   -0.000171
     11          1           0        0.582178   -2.138227   -0.000015
     12          1           0        0.582178    2.138228    0.000110
     13          1           0       -1.898215    2.152722    0.000094
     14          1           0       -1.898214   -2.152722   -0.000032
     15          1           0       -3.959579   -0.860896   -0.000017
     16          1           0       -3.959579    0.860895    0.000034
 ---------------------------------------------------------------------

 SCF Done:  E(RCAM-B3LYP) =  -491.927836931     A.U. after    1 cycles

 The electronic state is 1-A.
 Alpha  occ. eigenvalues --  -19.25571 -19.25569 -14.65202 -14.45424 -10.34622
 Alpha  occ. eigenvalues --  -10.31852 -10.29826 -10.29825 -10.28816 -10.28816
 Alpha  occ. eigenvalues --   -1.31361  -1.13449  -1.04203  -0.96897  -0.88024
 Alpha  occ. eigenvalues --   -0.86126  -0.77558  -0.72561  -0.67933  -0.64023
 Alpha  occ. eigenvalues --   -0.62552  -0.61375  -0.60877  -0.57901  -0.53793
 Alpha  occ. eigenvalues --   -0.52996  -0.51814  -0.49194  -0.48905  -0.43579
 Alpha  occ. eigenvalues --   -0.41093  -0.37732  -0.37233  -0.35847  -0.33881
 Alpha  occ. eigenvalues --   -0.28806
 Alpha virt. eigenvalues --   -0.04087   0.01112   0.01229   0.03512   0.04097
 Alpha virt. eigenvalues --    0.05091   0.06304   0.06768   0.08837   0.09031
 Alpha virt. eigenvalues --    0.10282   0.10810   0.11494   0.12120   0.13760

 Mulliken charges:
               1
     1  C   -0.084677
     2  C   -0.190858
     3  C   -0.084676
     4  C   -0.030947
     5  C    0.273147
     6  C   -0.030948
     7  N   -0.678910
     8  N   -0.237041
     9  O   -0.083149
    10  O   -0.083149
    11  H    0.175986
    12  H    0.175986
    13  H    0.127583
    14  H    0.127583
    15  H    0.312035
    16  H    0.312035
 Sum of Mulliken charges =   0.00000

 Dipole moment (field-independent basis, Debye):
    X=             -7.6010    Y=              0.0000    Z=              0.0004  Tot=              7.6010
 Quadrupole moment (field-independent basis, Debye-Ang):
   XX=            -57.5584   YY=            -53.2224   ZZ=            -60.8725
   XY=              0.0000   XZ=              0.0016   YZ=              0.0002

  Exact polarizability: 146.437   0.000  97.892  -0.002   0.001  49.990
 Approx polarizability: 163.483   0.000 136.945  -0.002   0.002  62.200

 ******    1 imaginary frequencies (negative Signs) ******

                      1                      2                      3
                      A                      A                      A
 Frequencies --   -235.7112                70.3992               112.8672
 Red. masses --      1.2240                 7.7373                 5.8862
 Frc consts  --      0.0401                 0.0226                 0.0442
 IR Inten    --    241.1014                 0.0000                 0.0337

                      4                      5                      6
                      A                      A                      A
 Frequencies --    228.0562               293.1840               370.4516
 Red. masses --      6.4517                 5.7013                 9.4407
 Frc consts  --      0.1977                 0.2887                 0.7633
 IR Inten    --      0.3086                 3.1418                 0.0247

                      7                      8                      9
                      A                      A                      A
 Frequencies --    394.4116               405.9873               432.1007
 Red. masses --      3.0473                 1.0172                 3.0189
 Frc consts  --      0.2793                 0.0988                 0.3321
 IR Inten    --      0.9449                 0.0000                 0.0000

                     10                     11                     12
                      A                      A                      A
 Frequencies --    507.0476               544.6185               651.6200
 Red. masses --      2.6654                 6.8162                 6.9034
 Frc consts  --      0.4038                 1.1912                 1.7270
 IR Inten    --     18.5797                 2.8931                19.0466

                     13                     14                     15
                      A                      A                      A
 Frequencies --    654.5468               704.3088               766.9192
 Red. masses --      6.8484                 3.1199                 7.5321
 Frc consts  --      1.7287                 0.9118                 2.6102
 IR Inten    --      1.0626                12.2326                22.4676

                     16                     17                     18
                      A                      A                      A
 Frequencies --    836.0915               839.7249               865.9644
 Red. masses --      1.2584                 6.0312                 1.9335
 Frc consts  --      0.5183                 2.5057                 0.8543
 IR Inten    --      0.0000                 1.8737                48.4079

                     19                     20                     21
                      A                      A                      A
 Frequencies --    891.7862               998.0842              1006.5738
 Red. masses --      8.1606                 1.3172                 1.3368
 Frc consts  --      3.8238                 0.7731                 0.7980
 IR Inten    --     26.3273                 1.2508                 0.0000

                     22                     23                     24
                      A                      A                      A
 Frequencies --   1032.6528              1048.3984              1154.5928
 Red. masses --      2.7100                 1.3946                 2.1085
 Frc consts  --      1.7027                 0.9032                 1.6561
 IR Inten    --      1.9675                 0.0791               153.5133

                     25                     26                     27
                      A                      A                      A
 Frequencies --   1154.5942              1220.5386              1343.0261
 Red. masses --      1.1683                 1.4670                 1.3173
 Frc consts  --      0.9176                 1.2876                 1.3999
 IR Inten    --     15.8564                11.2296                 0.0848

                     28                     29                     30
                      A                      A                      A
 Frequencies --   1361.8104              1385.6174              1434.6231
 Red. masses --      3.0305                 8.0761                11.6731
 Frc consts  --      3.3113                 9.1356                14.1551
 IR Inten    --    190.6452                 0.7213               609.3470

                     31                     32                     33
                      A                      A                      A
 Frequencies --   1504.1949              1566.5392              1633.6490
 Red. masses --      3.5217                 2.6756                10.3603
 Frc consts  --      4.6948                 3.8685                16.2907
 IR Inten    --      1.8732                45.1723               151.2489

                     34                     35                     36
                      A                      A                      A
 Frequencies --   1664.5903              1690.8685              1693.9034
 Red. masses --      1.3443                 9.1242                 4.5075
 Frc consts  --      2.1946                15.3696                 7.6201
 IR Inten    --     45.8961               172.6065               434.7479

                     37                     38                     39
                      A                      A                      A
 Frequencies --   3213.7746              3214.4921              3262.6683
 Red. masses --      1.0913                 1.0910                 1.0936
 Frc consts  --      6.6407                 6.6420                 6.8587
 IR Inten    --      7.8671                11.3859                 1.0640

                     40                     41                     42
                      A                      A                      A
 Frequencies --   3262.9687              3662.8199              3789.1120
 Red. masses --      1.0942                 1.0459                 1.1053
 Frc consts  --      6.8637                 8.2673                 9.3500
 IR Inten    --      3.9116               124.7378                47.8195

 - Thermochemistry -
 -------------------
 Temperature   298.150 Kelvin.  Pressure   1.00000 Atm.
 Atom     1 has atomic number  6 and mass  12.00000

 Molecular mass:   138.04293 amu.
 Principal axes and moments of inertia in atomic units:
                           1         2         3
     Eigenvalues --   457.080602181.692552638.77315
           X            1.00000   0.00000   0.00002
           Y           -0.00000   1.00000  -0.00003
           Z           -0.00002   0.00003   1.00000
 This molecule is an asymmetric top.
 Rotational symmetry number  1.
 Warning -- assumption of classical behavior for rotation
           may cause significant error
 Rotational temperatures (Kelvin)      0.18949     0.03970     0.03282
 Rotational constants (GHZ):           3.94841     0.82722     0.68393
    1 imaginary frequencies ignored.
 Zero-point vibrational energy     316233.9 (Joules/Mol)
                                   75.58171 (Kcal/Mol)
 Warning -- explicit consideration of  10 degrees of freedom as
           vibrations may cause significant error
 Vibrational temperatures:    101.29   162.39   328.12   421.83   533.00
          (Kelvin)            567.47   584.12   621.70   729.53   783.58
                              937.53   941.75  1013.34  1103.42  1202.95
                             1208.18  1245.93  1283.08  1436.02  1448.23
                             1485.76  1508.41  1661.20  1661.20  1756.08
                             1932.31  1959.34  1993.59  2064.10  2164.20
                             2253.90  2350.45  2394.97  2432.78  2437.15
                             4623.90  4624.93  4694.25  4694.68  5269.97
                             5451.68

 Zero-point correction=                           0.120447 (Hartree/Particle)
 Thermal correction to Energy=                    0.128340
 Thermal correction to Enthalpy=                  0.129284
 Thermal correction to Gibbs Free Energy=         0.087315
 Sum of electronic and zero-point Energies=           -491.807390
 Sum of electronic and thermal Energies=              -491.799497
 Sum of electronic and thermal Enthalpies=            -491.798553
 Sum of electronic and thermal Free Energies=         -491.840522

                     E (Thermal)             CV                S
                      KCal/Mol        Cal/Mol-Kelvin    Cal/Mol-Kelvin
 Total                   80.534             30.058             88.331
 Electronic               0.000              0.000              0.000
 Translational            0.889              2.981             40.679
 Rotational               0.889              2.981             29.355
 Vibrational             78.757             24.096             18.297
 Vibration     1          0.598              1.968              4.142
 Vibration     2          0.607              1.939              3.219
 Vibration     3          0.651              1.798              1.894
 Vibration     4          0.688              1.686              1.456
 Vibration     5          0.742              1.533              1.078
 Vibration     6          0.761              1.482              0.983
 Vibration     7          0.771              1.457              0.941
 Vibration     8          0.793              1.400              0.852
 Vibration     9          0.862              1.234              0.641
 Vibration    10          0.900              1.151              0.555

 Optimization completed.
    -- Stationary point found.
 Normal termination of Gaussian 09 at Thu Jun 13 21:52:56 2024.
