 Gaussian 09, Revision E.01,
 Gaussian 09:  ES64L-G09RevE.01 30-Nov-2015

 --------------------------------------
 # opt freq pbepbe/6-31+g(d,p) em=gd3bj
 --------------------------------------

 ----------
 [No Title]
 ----------
 Symbolic Z-matrix:
 Charge =  1 Multiplicity = 1

 SCF Done:  E(RPBE-PBE) =  -491.964698719     A.U. after   18 cycles
 SCF Done:  E(RPBE-PBE) =  -491.965571805     A.U. after   12 cycles
 SCF Done:  E(RPBE-PBE) =  -491.965602319     A.U. after   11 cycles
 SCF Done:  E(RPBE-PBE) =  -491.965608253     A.U. after   11 cycles
 SCF Done:  E(RPBE-PBE) =  -491.965609287     A.U. after   10 cycles
 Optimization completed.
    -- Stationary point found.
 Normal termination of Gaussian 09 at Thu Jun 20 17:11:25 2024.

 ----------------------------------------------------------------------
 #N Geom=AllCheck Guess=TCheck SCRF=Check GenChk RPBEPBE/6-31+G(d,p) Fr
 eq
 ----------------------------------------------------------------------

 Structure from the checkpoint file:  "pbe4NiAnyang.chk"
 ----------
 [No Title]
 ----------
 Charge =  1 Multiplicity = 1

                         Standard orientation:
 ---------------------------------------------------------------------
 Center     Atomic      Atomic             Coordinates (Angstroms)
 Number     Number       Type             X           Y           Z
 ---------------------------------------------------------------------
      1          6           0        0.004985   -1.219654   -0.000007
      2          6           0       -0.667172    0.039247   -0.000009
      3          6           0        0.059419    1.268147   -0.000002
      4          6           0        1.432941    1.236645    0.000002
      5          6           0        2.130004   -0.018700    0.000002
      6          6           0        1.379991   -1.242548   -0.000002
      7          7           0        3.473559   -0.046870    0.000006
      8          7           0       -2.043826    0.114895   -0.000014
      9          8           0       -2.724639    1.131747    0.000006
     10          8           0       -2.685062   -1.119323    0.000009
     11          1           0       -0.564890   -2.149761   -0.000010
     12          1           0       -0.484455    2.215233   -0.000003
     13          1           0        2.001112    2.170818    0.000005
     14          1           0        1.908972   -2.199407   -0.000002
     15          1           0        3.987858   -0.925777    0.000006
     16          1           0        4.023643    0.810134    0.000009
     17          1           0       -3.643757   -0.875635    0.000023
 ---------------------------------------------------------------------

 SCF Done:  E(RPBE-PBE) =  -491.965609287     A.U. after    1 cycles

 The electronic state is 1-A.
 Alpha  occ. eigenvalues --  -19.03698 -19.00632 -14.40723 -14.22887 -10.15485
 Alpha  occ. eigenvalues --  -10.14251 -10.10444 -10.10310 -10.09398 -10.09396
 Alpha  occ. eigenvalues --   -1.30712  -1.15837  -1.04896  -0.99300  -0.92226
 Alpha  occ. eigenvalues --   -0.87088  -0.81887  -0.76070  -0.73748  -0.69470
 Alpha  occ. eigenvalues --   -0.67401  -0.66181  -0.65197  -0.65071  -0.58933
 Alpha  occ. eigenvalues --   -0.57415  -0.56457  -0.55662  -0.54154  -0.53749
 Alpha  occ. eigenvalues --   -0.48648  -0.47934  -0.47351  -0.44488  -0.41734
 Alpha  occ. eigenvalues --   -0.38187
 Alpha virt. eigenvalues --   -0.30959  -0.22012  -0.19548  -0.16365  -0.15060
 Alpha virt. eigenvalues --   -0.12572  -0.12183  -0.11800  -0.10259  -0.08978
 Alpha virt. eigenvalues --   -0.08752  -0.07657  -0.07162  -0.06084  -0.04934

 Mulliken charges:
               1
     1  C    0.233188
     2  C   -0.504750
     3  C   -0.043888
     4  C    0.047694
     5  C    0.193982
     6  C    0.016663
     7  N   -0.526396
     8  N   -0.372510
     9  O    0.089590
    10  O    0.006691
    11  H    0.207895
    12  H    0.207089
    13  H    0.181560
    14  H    0.179881
    15  H    0.349634
    16  H    0.349830
    17  H    0.383848
 Sum of Mulliken charges =   1.00000

 Dipole moment (field-independent basis, Debye):
    X=              3.8469    Y=             -1.0183    Z=              0.0000  Tot=              3.9794
 Quadrupole moment (field-independent basis, Debye-Ang):
   XX=             -7.1155   YY=            -44.4318   ZZ=            -58.7299
   XY=              4.4198   XZ=             -0.0000   YZ=             -0.0000

  Exact polarizability: 198.166  -3.774  92.019   0.000   0.000  45.713
 Approx polarizability: 753.764 -58.536 198.601   0.001   0.000  73.964

                      1                      2                      3
                      A                      A                      A
 Frequencies --     92.6015                97.5512               212.9806
 Red. masses --      5.1194                 6.7492                 5.7362
 Frc consts  --      0.0259                 0.0378                 0.1533
 IR Inten    --      2.5408                 0.8873                 1.1778

                      4                      5                      6
                      A                      A                      A
 Frequencies --    254.3662               358.3514               382.4137
 Red. masses --      4.6222                 8.1882                 2.3249
 Frc consts  --      0.1762                 0.6195                 0.2003
 IR Inten    --      0.1588                 0.7090                15.7191

                      7                      8                      9
                      A                      A                      A
 Frequencies --    383.5532               439.5770               472.3070
 Red. masses --      3.0664                 1.3144                 1.7640
 Frc consts  --      0.2658                 0.1496                 0.2318
 IR Inten    --      0.3128               155.2551                 3.8216

                     10                     11                     12
                      A                      A                      A
 Frequencies --    502.8068               513.5385               538.6394
 Red. masses --      1.3792                 5.9737                 1.0678
 Frc consts  --      0.2054                 0.9282                 0.1825
 IR Inten    --    174.6781                13.6304                 0.0787

                     13                     14                     15
                      A                      A                      A
 Frequencies --    584.3256               612.0597               635.8088
 Red. masses --      5.8837                 6.8352                 6.0889
 Frc consts  --      1.1836                 1.5087                 1.4502
 IR Inten    --     15.3781                 4.9589                13.8899

                     16                     17                     18
                      A                      A                      A
 Frequencies --    702.3793               708.3803               780.8332
 Red. masses --      4.9631                 5.5117                 1.2783
 Frc consts  --      1.4426                 1.6296                 0.4592
 IR Inten    --      0.0675                14.0814                 0.3094

                     19                     20                     21
                      A                      A                      A
 Frequencies --    822.8233               823.8975               947.9053
 Red. masses --      1.8316                 5.5764                 1.2970
 Frc consts  --      0.7306                 2.2302                 0.6866
 IR Inten    --     62.8659                19.5339                 0.0866

                     22                     23                     24
                      A                      A                      A
 Frequencies --    953.0808               969.2809               989.5416
 Red. masses --      1.2909                 3.9934                 3.3098
 Frc consts  --      0.6909                 2.2105                 1.9095
 IR Inten    --      0.2450                48.0409               188.8531

                     25                     26                     27
                      A                      A                      A
 Frequencies --   1019.3694              1138.4301              1167.0494
 Red. masses --      1.4996                 1.1756                 1.2164
 Frc consts  --      0.9181                 0.8977                 0.9761
 IR Inten    --     19.6682                20.0025               240.5954

                     28                     29                     30
                      A                      A                      A
 Frequencies --   1237.4439              1302.4946              1340.8680
 Red. masses --      1.7981                 1.3405                 2.1362
 Frc consts  --      1.6223                 1.3399                 2.2629
 IR Inten    --    231.3869                13.0651                55.4057

                     31                     32                     33
                      A                      A                      A
 Frequencies --   1374.4786              1396.9346              1505.6472
 Red. masses --      2.4799                 4.4065                 5.2918
 Frc consts  --      2.7603                 5.0664                 7.0680
 IR Inten    --     34.0297                20.3653                49.8059

                     34                     35                     36
                      A                      A                      A
 Frequencies --   1510.0310              1526.4866              1613.3706
 Red. masses --      2.8137                 6.0758                 4.4943
 Frc consts  --      3.7801                 8.3414                 6.8926
 IR Inten    --     26.9433                 7.1573               517.7495

                     37                     38                     39
                      A                      A                      A
 Frequencies --   1632.6151              1662.8557              3144.6269
 Red. masses --      1.5702                 4.2703                 1.0916
 Frc consts  --      2.4659                 6.9570                 6.3597
 IR Inten    --    432.3326                55.0669                 0.2807

                     40                     41                     42
                      A                      A                      A
 Frequencies --   3145.2428              3170.1683              3183.0579
 Red. masses --      1.0912                 1.0952                 1.0945
 Frc consts  --      6.3598                 6.4848                 6.5337
 IR Inten    --      0.0462                 9.1303                 8.0322

                     43                     44                     45
                      A                      A                      A
 Frequencies --   3504.4483              3553.7062              3625.9650
 Red. masses --      1.0474                 1.0663                 1.1053
 Frc consts  --      7.5787                 7.9337                 8.5620
 IR Inten    --    354.4061               315.2370                78.6873

 - Thermochemistry -
 -------------------
 Temperature   298.150 Kelvin.  Pressure   1.00000 Atm.
 Atom     1 has atomic number  6 and mass  12.00000

 Molecular mass:   139.05075 amu.
 Principal axes and moments of inertia in atomic units:
                           1         2         3
     Eigenvalues --   486.714742222.877372709.59211
           X            0.99998   0.00612  -0.00000
           Y           -0.00612   0.99998  -0.00000
           Z            0.00000   0.00000   1.00000
 This molecule is an asymmetric top.
 Rotational symmetry number  1.
 Warning -- assumption of classical behavior for rotation
           may cause significant error
 Rotational temperatures (Kelvin)      0.17796     0.03896     0.03197
 Rotational constants (GHZ):           3.70801     0.81189     0.66606
 Zero-point vibrational energy     338150.2 (Joules/Mol)
                                   80.81983 (Kcal/Mol)
 Warning -- explicit consideration of  14 degrees of freedom as
           vibrations may cause significant error
 Vibrational temperatures:    133.23   140.35   306.43   365.98   515.59
          (Kelvin)            550.21   551.85   632.45   679.54   723.43
                              738.87   774.98   840.71   880.62   914.79
                             1010.57  1019.20  1123.44  1183.86  1185.40
                             1363.82  1371.27  1394.58  1423.73  1466.64
                             1637.94  1679.12  1780.40  1874.00  1929.21
                             1977.57  2009.87  2166.29  2172.60  2196.27
                             2321.28  2348.97  2392.48  4524.41  4525.30
                             4561.16  4579.70  5042.11  5112.98  5216.95

 Zero-point correction=                           0.128795 (Hartree/Particle)
 Thermal correction to Energy=                    0.137522
 Thermal correction to Enthalpy=                  0.138466
 Thermal correction to Gibbs Free Energy=         0.095290
 Sum of electronic and zero-point Energies=           -491.836815
 Sum of electronic and thermal Energies=              -491.828087
 Sum of electronic and thermal Enthalpies=            -491.827143
 Sum of electronic and thermal Free Energies=         -491.870319

                     E (Thermal)             CV                S
                      KCal/Mol        Cal/Mol-Kelvin    Cal/Mol-Kelvin
 Total                   86.296             34.450             90.871
 Electronic               0.000              0.000              0.000
 Translational            0.889              2.981             40.701
 Rotational               0.889              2.981             29.462
 Vibrational             84.519             28.488             20.708
 Vibration     1          0.602              1.954              3.604
 Vibration     2          0.603              1.951              3.503
 Vibration     3          0.644              1.821              2.018
 Vibration     4          0.665              1.755              1.700
 Vibration     5          0.733              1.558              1.129
 Vibration     6          0.752              1.508              1.030
 Vibration     7          0.753              1.505              1.025
 Vibration     8          0.800              1.384              0.828
 Vibration     9          0.829              1.311              0.731
 Vibration    10          0.858              1.244              0.651
 Vibration    11          0.869              1.220              0.625
 Vibration    12          0.894              1.165              0.568
 Vibration    13          0.941              1.065              0.477
 Vibration    14          0.971              1.006              0.429

 Optimization completed.
    -- Stationary point found.
 Normal termination of Gaussian 09 at Thu Jun 20 17:12:32 2024.
