 Gaussian 09, Revision E.01,
 Gaussian 09:  ES64L-G09RevE.01 30-Nov-2015

 --------------------------------------
 # opt freq pbepbe/6-31+g(d,p) em=gd3bj
 --------------------------------------

 ----------
 [No Title]
 ----------
 Symbolic Z-matrix:
 Charge =  0 Multiplicity = 1

 SCF Done:  E(RPBE-PBE) =  -491.615551221     A.U. after   16 cycles
 SCF Done:  E(RPBE-PBE) =  -491.616300801     A.U. after   12 cycles
 SCF Done:  E(RPBE-PBE) =  -491.614123288     A.U. after   13 cycles
 SCF Done:  E(RPBE-PBE) =  -491.616331389     A.U. after   10 cycles
 SCF Done:  E(RPBE-PBE) =  -491.616345973     A.U. after   11 cycles
 SCF Done:  E(RPBE-PBE) =  -491.616347611     A.U. after   11 cycles
 Optimization completed.
    -- Stationary point found.
 Normal termination of Gaussian 09 at Thu Jun 20 16:58:33 2024.

 ----------------------------------------------------------------------
 #N Geom=AllCheck Guess=TCheck SCRF=Check GenChk RPBEPBE/6-31+G(d,p) Fr
 eq
 ----------------------------------------------------------------------

 Structure from the checkpoint file:  "pbe4NiAn.chk"
 ----------
 [No Title]
 ----------
 Charge =  0 Multiplicity = 1

                         Standard orientation:
 ---------------------------------------------------------------------
 Center     Atomic      Atomic             Coordinates (Angstroms)
 Number     Number       Type             X           Y           Z
 ---------------------------------------------------------------------
      1          6           0        0.021357   -1.221996    0.000046
      2          6           0        0.714361    0.000000    0.000102
      3          6           0        0.021357    1.221996    0.000117
      4          6           0       -1.369637    1.222153    0.000087
      5          6           0       -2.092679    0.000000    0.000035
      6          6           0       -1.369637   -1.222153    0.000015
      7          7           0       -3.464524   -0.000000    0.000009
      8          7           0        2.172971    0.000000    0.000140
      9          8           0        2.757257    1.102753   -0.000197
     10          8           0        2.757257   -1.102753   -0.000264
     11          1           0        0.588869   -2.154592    0.000031
     12          1           0        0.588869    2.154592    0.000157
     13          1           0       -1.913687    2.171912    0.000103
     14          1           0       -1.913687   -2.171912   -0.000024
     15          1           0       -3.988166   -0.867365   -0.000042
     16          1           0       -3.988166    0.867364    0.000011
 ---------------------------------------------------------------------

 SCF Done:  E(RPBE-PBE) =  -491.616347611     A.U. after    1 cycles

 The electronic state is 1-A.
 Alpha  occ. eigenvalues --  -18.79757 -18.79757 -14.21856 -14.05995  -9.98368
 Alpha  occ. eigenvalues --   -9.95711  -9.93522  -9.93522  -9.93152  -9.93152
 Alpha  occ. eigenvalues --   -1.11079  -0.94857  -0.87976  -0.80103  -0.72193
 Alpha  occ. eigenvalues --   -0.70375  -0.63061  -0.58486  -0.54452  -0.50685
 Alpha  occ. eigenvalues --   -0.50291  -0.48139  -0.46515  -0.44538  -0.41638
 Alpha  occ. eigenvalues --   -0.40889  -0.39865  -0.37621  -0.37268  -0.32548
 Alpha  occ. eigenvalues --   -0.30559  -0.26502  -0.25196  -0.25160  -0.22983
 Alpha  occ. eigenvalues --   -0.20962
 Alpha virt. eigenvalues --   -0.11198  -0.06315  -0.03475  -0.02804  -0.00563
 Alpha virt. eigenvalues --   -0.00277   0.02418   0.03008   0.04260   0.04612
 Alpha virt. eigenvalues --    0.06021   0.06693   0.07084   0.07299   0.08676

 Mulliken charges:
               1
     1  C   -0.041672
     2  C   -0.344390
     3  C   -0.041672
     4  C   -0.005570
     5  C    0.167950
     6  C   -0.005570
     7  N   -0.621773
     8  N   -0.302905
     9  O   -0.029998
    10  O   -0.029998
    11  H    0.178625
    12  H    0.178625
    13  H    0.134983
    14  H    0.134983
    15  H    0.314191
    16  H    0.314191
 Sum of Mulliken charges =  -0.00000

 Dipole moment (field-independent basis, Debye):
    X=             -8.0635    Y=              0.0000    Z=              0.0007  Tot=              8.0635
 Quadrupole moment (field-independent basis, Debye-Ang):
   XX=            -55.6516   YY=            -53.1853   ZZ=            -60.8987
   XY=              0.0000   XZ=              0.0026   YZ=              0.0002

  Exact polarizability: 170.042   0.000 102.611  -0.003   0.002  51.603
 Approx polarizability: 388.367   0.000 241.242  -0.008   0.005  82.902

 ******    1 imaginary frequencies (negative Signs) ******

                      1                      2                      3
                      A                      A                      A
 Frequencies --   -243.1900                71.3506               104.3771
 Red. masses --      1.2429                 7.6257                 5.7842
 Frc consts  --      0.0433                 0.0229                 0.0371
 IR Inten    --    214.1988                 0.0000                 0.0075

                      4                      5                      6
                      A                      A                      A
 Frequencies --    217.4325               275.6123               353.6925
 Red. masses --      6.4427                 5.4562                 9.4282
 Frc consts  --      0.1795                 0.2442                 0.6949
 IR Inten    --      0.1488                 4.2476                 0.0043

                      7                      8                      9
                      A                      A                      A
 Frequencies --    377.6264               404.3504               416.4579
 Red. masses --      3.0250                 1.6001                 1.4670
 Frc consts  --      0.2542                 0.1541                 0.1499
 IR Inten    --      1.0572                 0.0000                 0.0000

                     10                     11                     12
                      A                      A                      A
 Frequencies --    477.5971               521.9984               622.5880
 Red. masses --      2.6691                 6.8734                 7.0528
 Frc consts  --      0.3587                 1.1035                 1.6107
 IR Inten    --     19.6598                 2.2208                10.7919

                     13                     14                     15
                      A                      A                      A
 Frequencies --    625.4624               667.6699               720.6639
 Red. masses --      6.8314                 3.3958                 8.0008
 Frc consts  --      1.5746                 0.8919                 2.4482
 IR Inten    --      0.8704                12.7856                13.1455

                     16                     17                     18
                      A                      A                      A
 Frequencies --    783.2612               797.6348               810.5896
 Red. masses --      1.2613                 6.5738                 1.9126
 Frc consts  --      0.4559                 2.4642                 0.7404
 IR Inten    --      0.0000                 2.2578                43.8353

                     19                     20                     21
                      A                      A                      A
 Frequencies --    848.5026               932.2203               936.2872
 Red. masses --      7.2107                 1.2667                 1.3216
 Frc consts  --      3.0587                 0.6486                 0.6826
 IR Inten    --     16.1324                 2.1963                 0.0000

                     22                     23                     24
                      A                      A                      A
 Frequencies --    989.0412              1008.4619              1102.2073
 Red. masses --      2.7565                 1.4021                 2.2941
 Frc consts  --      1.5887                 0.8401                 1.6421
 IR Inten    --      1.0615                 0.2428               113.9205

                     25                     26                     27
                      A                      A                      A
 Frequencies --   1108.9582              1172.1911              1280.9108
 Red. masses --      1.1434                 1.3804                 1.3195
 Frc consts  --      0.8284                 1.1175                 1.2756
 IR Inten    --     16.7558                17.0621                 0.1117

                     28                     29                     30
                      A                      A                      A
 Frequencies --   1309.3062              1326.5150              1387.1830
 Red. masses --      7.6544                 3.2161                 6.4931
 Frc consts  --      7.7312                 3.3343                 7.3615
 IR Inten    --    763.2464                24.5957                 2.2707

                     31                     32                     33
                      A                      A                      A
 Frequencies --   1447.1100              1496.9547              1513.5451
 Red. masses --      4.2650                 2.8345                12.2605
 Frc consts  --      5.2623                 3.7423                16.5481
 IR Inten    --      3.6993                43.1106               186.5353

                     34                     35                     36
                      A                      A                      A
 Frequencies --   1591.6353              1603.2925              1627.5563
 Red. masses --      7.9189                 1.5788                 3.0603
 Frc consts  --     11.8195                 2.3912                 4.7762
 IR Inten    --     45.7259                 1.4125               423.2310

                     37                     38                     39
                      A                      A                      A
 Frequencies --   3120.0678              3120.7684              3167.7883
 Red. masses --      1.0899                 1.0897                 1.0922
 Frc consts  --      6.2512                 6.2529                 6.4575
 IR Inten    --     10.8406                13.2313                 0.1122

                     40                     41                     42
                      A                      A                      A
 Frequencies --   3168.0313              3558.0490              3685.0350
 Red. masses --      1.0929                 1.0456                 1.1046
 Frc consts  --      6.4624                 7.7989                 8.8380
 IR Inten    --      4.0751               120.0230                39.7270

 - Thermochemistry -
 -------------------
 Temperature   298.150 Kelvin.  Pressure   1.00000 Atm.
 Atom     1 has atomic number  6 and mass  12.00000

 Molecular mass:   138.04293 amu.
 Principal axes and moments of inertia in atomic units:
                           1         2         3
     Eigenvalues --   467.701962215.658862683.36080
           X            1.00000   0.00000   0.00003
           Y            0.00000   1.00000  -0.00003
           Z           -0.00003   0.00003   1.00000
 This molecule is an asymmetric top.
 Rotational symmetry number  1.
 Warning -- assumption of classical behavior for rotation
           may cause significant error
 Rotational temperatures (Kelvin)      0.18519     0.03909     0.03228
 Rotational constants (GHZ):           3.85874     0.81454     0.67257
    1 imaginary frequencies ignored.
 Zero-point vibrational energy     303552.3 (Joules/Mol)
                                   72.55074 (Kcal/Mol)
 Warning -- explicit consideration of  10 degrees of freedom as
           vibrations may cause significant error
 Vibrational temperatures:    102.66   150.18   312.84   396.54   508.88
          (Kelvin)            543.32   581.77   599.19   687.15   751.04
                              895.76   899.90   960.63  1036.87  1126.94
                             1147.62  1166.26  1220.80  1341.26  1347.11
                             1423.01  1450.95  1585.83  1595.54  1686.52
                             1842.94  1883.80  1908.56  1995.84  2082.07
                             2153.78  2177.65  2290.01  2306.78  2341.69
                             4489.08  4490.08  4557.74  4558.08  5119.23
                             5301.94

 Zero-point correction=                           0.115617 (Hartree/Particle)
 Thermal correction to Energy=                    0.123821
 Thermal correction to Enthalpy=                  0.124765
 Thermal correction to Gibbs Free Energy=         0.082242
 Sum of electronic and zero-point Energies=           -491.500731
 Sum of electronic and thermal Energies=              -491.492527
 Sum of electronic and thermal Enthalpies=            -491.491583
 Sum of electronic and thermal Free Energies=         -491.534106

                     E (Thermal)             CV                S
                      KCal/Mol        Cal/Mol-Kelvin    Cal/Mol-Kelvin
 Total                   77.699             31.456             89.498
 Electronic               0.000              0.000              0.000
 Translational            0.889              2.981             40.679
 Rotational               0.889              2.981             29.410
 Vibrational             75.921             25.494             19.409
 Vibration     1          0.598              1.968              4.116
 Vibration     2          0.605              1.946              3.371
 Vibration     3          0.646              1.815              1.980
 Vibration     4          0.677              1.718              1.561
 Vibration     5          0.730              1.568              1.150
 Vibration     6          0.748              1.518              1.049
 Vibration     7          0.770              1.461              0.947
 Vibration     8          0.780              1.434              0.904
 Vibration     9          0.834              1.300              0.717
 Vibration    10          0.877              1.201              0.605

 Optimization completed.
    -- Stationary point found.
 Normal termination of Gaussian 09 at Thu Jun 20 16:59:35 2024.
