 Gaussian 09, Revision E.01,
 Gaussian 09:  ES64L-G09RevE.01 30-Nov-2015

 -----------------------------------------------------
 # opt freq B2PLYP/6-31+g(d,p) EmpiricalDispersion=GD3
 -----------------------------------------------------

 ----------
 [No Title]
 ----------
 Symbolic Z-matrix:
 Charge =  1 Multiplicity = 1

 SCF Done:  E(RB2PLYP) =  -609.799956523     A.U. after   14 cycles
 E2(B2PLYP) =    -0.5917340595D+00 E(B2PLYP) =    -0.61039169058287D+03
 SCF Done:  E(RB2PLYP) =  -609.799374786     A.U. after   11 cycles
 E2(B2PLYP) =    -0.5923921093D+00 E(B2PLYP) =    -0.61039176689535D+03
 SCF Done:  E(RB2PLYP) =  -609.799000901     A.U. after   12 cycles
 E2(B2PLYP) =    -0.5928129170D+00 E(B2PLYP) =    -0.61039181381802D+03
 SCF Done:  E(RB2PLYP) =  -609.799445797     A.U. after   11 cycles
 E2(B2PLYP) =    -0.5924891697D+00 E(B2PLYP) =    -0.61039193496688D+03
 SCF Done:  E(RB2PLYP) =  -609.799456100     A.U. after    9 cycles
 E2(B2PLYP) =    -0.5924795149D+00 E(B2PLYP) =    -0.61039193561459D+03
 Optimization completed.
    -- Stationary point found.
 Normal termination of Gaussian 09 at Thu Dec 19 09:27:15 2024.

 ----------------------------------------------------------------------
 #N Geom=AllCheck Guess=TCheck SCRF=Check GenChk RB2PLYP(FC)/6-31+G(d,p
 ) Freq
 ----------------------------------------------------------------------

 Structure from the checkpoint file:  "B2PLYPTHAPD3yang.chk"
 ----------
 [No Title]
 ----------
 Charge =  1 Multiplicity = 1

                         Standard orientation:
 ---------------------------------------------------------------------
 Center     Atomic      Atomic             Coordinates (Angstroms)
 Number     Number       Type             X           Y           Z
 ---------------------------------------------------------------------
      1          6           0        1.550200   -1.264720   -0.000263
      2          6           0        2.284483   -0.074030   -0.000125
      3          6           0        1.637173    1.176644    0.000005
      4          6           0        0.259926    1.212072    0.000045
      5          6           0       -0.557015    0.025387   -0.000029
      6          6           0        0.166714   -1.223684   -0.000236
      7          8           0       -0.558408   -2.356945   -0.000396
      8          6           0       -1.980810    0.081639    0.000221
      9          6           0       -2.907409   -1.084945    0.000238
     10          8           0       -2.633173    1.214589    0.000485
     11          8           0       -0.406492    2.402417    0.000076
     12          8           0        3.615019   -0.200108   -0.000166
     13          1           0        2.083822   -2.207130   -0.000406
     14          1           0        2.211257    2.096419    0.000016
     15          1           0        0.016064   -3.136938   -0.000511
     16          1           0       -2.730801   -1.711855   -0.874599
     17          1           0       -2.730387   -1.712187    0.874750
     18          1           0       -3.929299   -0.713571    0.000543
     19          1           0       -2.032723    1.993076    0.000492
     20          1           0        0.185668    3.168447    0.000658
     21          1           0        4.071268    0.653943   -0.000068
 ---------------------------------------------------------------------

 SCF Done:  E(RB2PLYP) =  -609.799456100     A.U. after    1 cycles
 E2(B2PLYP) =    -0.5924795166D+00 E(B2PLYP) =    -0.61039193561631D+03
 E2(B2PLYP) =    -0.5924795166D+00 E(B2PLYP) =    -0.61039193561630D+03

 The electronic state is 1-A.
 Alpha  occ. eigenvalues --  -19.98264 -19.97630 -19.95753 -19.95412 -10.93249
 Alpha  occ. eigenvalues --  -10.90682 -10.89867 -10.89585 -10.82544 -10.80402
 Alpha  occ. eigenvalues --  -10.79102 -10.77554  -1.42958  -1.40296  -1.39414
 Alpha  occ. eigenvalues --   -1.38919  -1.15859  -1.08245  -1.04008  -1.02186
 Alpha  occ. eigenvalues --   -0.92965  -0.91478  -0.88557  -0.84481  -0.82583
 Alpha  occ. eigenvalues --   -0.80352  -0.76122  -0.73605  -0.70872  -0.69662
 Alpha  occ. eigenvalues --   -0.69296  -0.68643  -0.67192  -0.66030  -0.64982
 Alpha  occ. eigenvalues --   -0.64165  -0.62997  -0.61072  -0.60510  -0.59182
 Alpha  occ. eigenvalues --   -0.58768  -0.53753  -0.45582  -0.44471
 Alpha virt. eigenvalues --   -0.19556  -0.11139  -0.10916  -0.09114  -0.08894
 Alpha virt. eigenvalues --   -0.07650  -0.07338  -0.05277  -0.05020  -0.04331
 Alpha virt. eigenvalues --   -0.03445  -0.02758  -0.01781  -0.00968  -0.00854

 Mulliken charges:
               1
     1  C    1.012464
     2  C   -0.794188
     3  C    0.817798
     4  C   -0.942214
     5  C    2.026987
     6  C   -2.105298
     7  O   -0.537102
     8  C    0.489023
     9  C   -0.094366
    10  O   -0.433319
    11  O   -0.648214
    12  O   -0.495431
    13  H    0.182489
    14  H    0.159713
    15  H    0.421032
    16  H    0.210788
    17  H    0.210780
    18  H    0.206603
    19  H    0.481355
    20  H    0.438274
    21  H    0.392824
 Sum of Mulliken charges =   1.00000

 Dipole moment (field-independent basis, Debye):
    X=              1.5464    Y=              1.6975    Z=              0.0012  Tot=              2.2963
 Quadrupole moment (field-independent basis, Debye-Ang):
   XX=            -43.9444   YY=            -37.1517   ZZ=            -70.0267
   XY=              9.2184   XZ=             -0.0010   YZ=              0.0067

  Exact polarizability: 165.207   1.315 116.066  -0.007   0.008  55.716
 Approx polarizability: 180.134  -1.866 134.644  -0.006   0.009  71.250

                      1                      2                      3
                      A                      A                      A
 Frequencies --     50.2300                73.3350               178.8987
 Red. masses --      5.1401                 4.8833                 6.0016
 Frc consts  --      0.0076                 0.0155                 0.1132
 IR Inten    --      1.5028                 2.3421                 0.9337

                      4                      5                      6
                      A                      A                      A
 Frequencies --    200.2300               244.8842               256.6463
 Red. masses --      4.6017                 1.1897                 1.6809
 Frc consts  --      0.1087                 0.0420                 0.0652
 IR Inten    --     10.6632                11.0480                66.4403

                      7                      8                      9
                      A                      A                      A
 Frequencies --    269.9114               292.7435               349.3810
 Red. masses --      4.8637                 1.6211                 5.5597
 Frc consts  --      0.2088                 0.0819                 0.3999
 IR Inten    --      1.4104                61.2392                12.9655

                     10                     11                     12
                      A                      A                      A
 Frequencies --    374.6753               398.0071               426.9509
 Red. masses --      5.1502                 4.9772                 5.5229
 Frc consts  --      0.4260                 0.4645                 0.5932
 IR Inten    --      5.2633                 4.9763                 5.0054

                     13                     14                     15
                      A                      A                      A
 Frequencies --    430.4780               446.4472               520.2898
 Red. masses --      1.1406                 1.1186                 5.5079
 Frc consts  --      0.1245                 0.1314                 0.8785
 IR Inten    --      2.5869               213.5708                 0.3273

                     16                     17                     18
                      A                      A                      A
 Frequencies --    526.3319               545.2365               566.7208
 Red. masses --      7.2221                 4.0069                 3.6308
 Frc consts  --      1.1788                 0.7018                 0.6871
 IR Inten    --      5.4443                 8.7536                 0.1084

                     19                     20                     21
                      A                      A                      A
 Frequencies --    600.4194               606.5797               641.2587
 Red. masses --      3.6354                 7.9567                 4.5117
 Frc consts  --      0.7722                 1.7249                 1.0931
 IR Inten    --     10.1294                 0.4102                18.2179

                     22                     23                     24
                      A                      A                      A
 Frequencies --    645.0818               718.1916               764.6875
 Red. masses --      3.5347                 4.3507                 1.3628
 Frc consts  --      0.8666                 1.3222                 0.4695
 IR Inten    --     29.2526                 5.6803                79.0938

                     25                     26                     27
                      A                      A                      A
 Frequencies --    804.2576               815.7409               993.9250
 Red. masses --      1.3319                 1.2039                 2.3505
 Frc consts  --      0.5076                 0.4720                 1.3681
 IR Inten    --     42.5605                72.4327                37.7992

                     28                     29                     30
                      A                      A                      A
 Frequencies --   1041.0902              1058.2017              1084.4244
 Red. masses --      3.4388                 1.5923                 4.0694
 Frc consts  --      2.1960                 1.0505                 2.8196
 IR Inten    --      0.2605                 0.0425               126.6397

                     31                     32                     33
                      A                      A                      A
 Frequencies --   1098.4154              1187.5135              1202.1453
 Red. masses --      1.9604                 1.3251                 1.2137
 Frc consts  --      1.3935                 1.1010                 1.0334
 IR Inten    --     43.7740                96.8431                87.5222

                     34                     35                     36
                      A                      A                      A
 Frequencies --   1227.4972              1248.7822              1298.7651
 Red. masses --      1.5666                 2.1477                 2.1062
 Frc consts  --      1.3907                 1.9733                 2.0932
 IR Inten    --    127.9523                33.2188                55.7878

                     37                     38                     39
                      A                      A                      A
 Frequencies --   1323.1059              1397.6892              1419.6967
 Red. masses --      1.9733                 3.0815                 1.1707
 Frc consts  --      2.0353                 3.5468                 1.3902
 IR Inten    --    182.0428               352.8900                54.0398

                     40                     41                     42
                      A                      A                      A
 Frequencies --   1446.8814              1451.2324              1485.3869
 Red. masses --      2.2658                 3.6313                 1.0443
 Frc consts  --      2.7948                 4.5060                 1.3575
 IR Inten    --     18.2513                39.9059                17.9986

                     43                     44                     45
                      A                      A                      A
 Frequencies --   1495.6015              1529.0574              1556.5422
 Red. masses --      2.1131                 2.2259                 3.5781
 Frc consts  --      2.7849                 3.0662                 5.1076
 IR Inten    --    400.8315               213.2446               190.6754

                     46                     47                     48
                      A                      A                      A
 Frequencies --   1586.3383              1623.2472              1695.7855
 Red. masses --      3.3802                 5.6800                 6.7700
 Frc consts  --      5.0118                 8.8180                11.4705
 IR Inten    --    214.9966               202.7549               856.5804

                     49                     50                     51
                      A                      A                      A
 Frequencies --   3103.0686              3178.3967              3219.8637
 Red. masses --      1.0354                 1.0991                 1.1065
 Frc consts  --      5.8743                 6.5416                 6.7591
 IR Inten    --     11.6877                 1.0928                 5.8251

                     52                     53                     54
                      A                      A                      A
 Frequencies --   3222.2441              3243.6290              3507.7885
 Red. masses --      1.0935                 1.0937                 1.0668
 Frc consts  --      6.6896                 6.7798                 7.7343
 IR Inten    --      0.0975                 3.2668               274.8161

                     55                     56                     57
                      A                      A                      A
 Frequencies --   3807.5280              3815.0944              3818.7210
 Red. masses --      1.0667                 1.0671                 1.0672
 Frc consts  --      9.1116                 9.1505                 9.1693
 IR Inten    --    178.6024               132.3478               240.9766

 - Thermochemistry -
 -------------------
 Temperature   298.150 Kelvin.  Pressure   1.00000 Atm.
 Atom     1 has atomic number  6 and mass  12.00000

 Molecular mass:   169.05008 amu.
 Principal axes and moments of inertia in atomic units:
                           1         2         3
     Eigenvalues --  1187.275932382.780063559.04221
           X            0.99943   0.03365   0.00008
           Y           -0.03365   0.99943  -0.00011
           Z           -0.00008   0.00011   1.00000
 This molecule is an asymmetric top.
 Rotational symmetry number  1.
 Warning -- assumption of classical behavior for rotation
           may cause significant error
 Rotational temperatures (Kelvin)      0.07295     0.03635     0.02434
 Rotational constants (GHZ):           1.52007     0.75741     0.50709
 Zero-point vibrational energy     431345.1 (Joules/Mol)
                                  103.09396 (Kcal/Mol)
 Warning -- explicit consideration of  20 degrees of freedom as
           vibrations may cause significant error
 Vibrational temperatures:     72.27   105.51   257.39   288.09   352.33
          (Kelvin)            369.26   388.34   421.19   502.68   539.07
                              572.64   614.29   619.36   642.34   748.58
                              757.27   784.47   815.38   863.87   872.73
                              922.63   928.13  1033.32  1100.21  1157.15
                             1173.67  1430.03  1497.89  1522.51  1560.24
                             1580.37  1708.56  1729.62  1766.09  1796.72
                             1868.63  1903.65  2010.96  2042.62  2081.74
                             2088.00  2137.14  2151.83  2199.97  2239.51
                             2282.38  2335.49  2439.85  4464.62  4573.00
                             4632.66  4636.08  4666.85  5046.92  5478.18
                             5489.06  5494.28

 Zero-point correction=                           0.164291 (Hartree/Particle)
 Thermal correction to Energy=                    0.175611
 Thermal correction to Enthalpy=                  0.176555
 Thermal correction to Gibbs Free Energy=         0.127566
 Sum of electronic and zero-point Energies=           -610.227645
 Sum of electronic and thermal Energies=              -610.216325
 Sum of electronic and thermal Enthalpies=            -610.215380
 Sum of electronic and thermal Free Energies=         -610.264369

                     E (Thermal)             CV                S
                      KCal/Mol        Cal/Mol-Kelvin    Cal/Mol-Kelvin
 Total                  110.198             44.154            103.106
 Electronic               0.000              0.000              0.000
 Translational            0.889              2.981             41.283
 Rotational               0.889              2.981             30.688
 Vibrational            108.420             38.192             31.134
 Vibration     1          0.595              1.978              4.808
 Vibration     2          0.599              1.967              4.062
 Vibration     3          0.629              1.868              2.340
 Vibration     4          0.638              1.840              2.131
 Vibration     5          0.660              1.771              1.767
 Vibration     6          0.666              1.752              1.684
 Vibration     7          0.674              1.729              1.597
 Vibration     8          0.688              1.687              1.458
 Vibration     9          0.727              1.577              1.169
 Vibration    10          0.746              1.524              1.061
 Vibration    11          0.764              1.474              0.970
 Vibration    12          0.789              1.412              0.869
 Vibration    13          0.792              1.404              0.857
 Vibration    14          0.806              1.369              0.807
 Vibration    15          0.875              1.205              0.609
 Vibration    16          0.881              1.192              0.595
 Vibration    17          0.900              1.150              0.554
 Vibration    18          0.923              1.103              0.511
 Vibration    19          0.959              1.031              0.449
 Vibration    20          0.965              1.018              0.438

 Optimization completed.
    -- Stationary point found.
 Normal termination of Gaussian 09 at Thu Dec 19 09:54:48 2024.
