 Gaussian 09, Revision E.01,
 Gaussian 09:  ES64L-G09RevE.01 30-Nov-2015

 -----------------------------------------------------
 # opt freq B2PLYP/6-31+g(d,p) EmpiricalDispersion=GD3
 -----------------------------------------------------

 ----------
 [No Title]
 ----------
 Symbolic Z-matrix:
 Charge =  0 Multiplicity = 1

 SCF Done:  E(RB2PLYP) =  -609.442982061     A.U. after   15 cycles
 E2(B2PLYP) =    -0.5973722691D+00 E(B2PLYP) =    -0.61004035433000D+03
 SCF Done:  E(RB2PLYP) =  -609.441879594     A.U. after   13 cycles
 E2(B2PLYP) =    -0.5981524838D+00 E(B2PLYP) =    -0.61004003207772D+03
 SCF Done:  E(RB2PLYP) =  -609.442463195     A.U. after   12 cycles
 E2(B2PLYP) =    -0.5982641478D+00 E(B2PLYP) =    -0.61004072734298D+03
 SCF Done:  E(RB2PLYP) =  -609.442646932     A.U. after   11 cycles
 E2(B2PLYP) =    -0.5981409192D+00 E(B2PLYP) =    -0.61004078785162D+03
 SCF Done:  E(RB2PLYP) =  -609.442773211     A.U. after   11 cycles
 E2(B2PLYP) =    -0.5980168914D+00 E(B2PLYP) =    -0.61004079010264D+03
 SCF Done:  E(RB2PLYP) =  -609.442867122     A.U. after   11 cycles
 E2(B2PLYP) =    -0.5979276958D+00 E(B2PLYP) =    -0.61004079481790D+03
 SCF Done:  E(RB2PLYP) =  -609.442810154     A.U. after   11 cycles
 E2(B2PLYP) =    -0.5979903370D+00 E(B2PLYP) =    -0.61004080049059D+03
 Optimization completed.
    -- Stationary point found.
 Normal termination of Gaussian 09 at Thu Dec 19 09:42:13 2024.

 ----------------------------------------------------------------------
 #N Geom=AllCheck Guess=TCheck SCRF=Check GenChk RB2PLYP(FC)/6-31+G(d,p
 ) Freq
 ----------------------------------------------------------------------

 Structure from the checkpoint file:  "B2PLYPD3THAP.chk"
 ----------
 [No Title]
 ----------
 Charge =  0 Multiplicity = 1

                         Standard orientation:
 ---------------------------------------------------------------------
 Center     Atomic      Atomic             Coordinates (Angstroms)
 Number     Number       Type             X           Y           Z
 ---------------------------------------------------------------------
      1          6           0       -1.527372    1.250891    0.000020
      2          6           0       -2.261503    0.058060   -0.000024
      3          6           0       -1.627173   -1.177614   -0.000059
      4          6           0       -0.228793   -1.229201   -0.000031
      5          6           0        0.568772   -0.038374    0.000080
      6          6           0       -0.140632    1.194899    0.000060
      7          8           0        0.584508    2.355814    0.000140
      8          6           0        2.031932   -0.166678    0.000244
      9          6           0        2.955375    1.025655   -0.000108
     10          8           0        2.558557   -1.303523    0.000194
     11          8           0        0.327348   -2.447265   -0.000264
     12          8           0       -3.618866    0.186547   -0.000067
     13          1           0       -2.053922    2.197888    0.000033
     14          1           0       -2.179583   -2.109536   -0.000147
     15          1           0       -0.022832    3.106782    0.000144
     16          1           0        2.778854    1.652391    0.874769
     17          1           0        3.977427    0.651512   -0.000118
     18          1           0        2.778710    1.652041   -0.875208
     19          1           0        1.316295   -2.302333   -0.000483
     20          1           0       -4.030964   -0.687143   -0.000115
 ---------------------------------------------------------------------

 SCF Done:  E(RB2PLYP) =  -609.442810154     A.U. after    1 cycles
 E2(B2PLYP) =    -0.5979903372D+00 E(B2PLYP) =    -0.61004080049083D+03
 E2(B2PLYP) =    -0.5979903372D+00 E(B2PLYP) =    -0.61004080049083D+03

 The electronic state is 1-A.
 Alpha  occ. eigenvalues --  -19.80823 -19.80517 -19.76926 -19.74717 -10.74159
 Alpha  occ. eigenvalues --  -10.73433 -10.72918 -10.72593 -10.64939 -10.63926
 Alpha  occ. eigenvalues --  -10.63404 -10.62597  -1.23847  -1.23305  -1.21911
 Alpha  occ. eigenvalues --   -1.18110  -0.99013  -0.90109  -0.87316  -0.84814
 Alpha  occ. eigenvalues --   -0.75864  -0.73777  -0.68578  -0.67252  -0.60831
 Alpha  occ. eigenvalues --   -0.60284  -0.58924  -0.56407  -0.53595  -0.52591
 Alpha  occ. eigenvalues --   -0.51416  -0.50580  -0.49571  -0.49222  -0.48890
 Alpha  occ. eigenvalues --   -0.47663  -0.46032  -0.44424  -0.44048  -0.42422
 Alpha  occ. eigenvalues --   -0.37040  -0.33681  -0.28879  -0.27626
 Alpha virt. eigenvalues --   -0.00570   0.01601   0.02390   0.04498   0.04520
 Alpha virt. eigenvalues --    0.06056   0.06488   0.07199   0.07461   0.08037
 Alpha virt. eigenvalues --    0.08841   0.09111   0.10781   0.10992   0.11636

 Mulliken charges:
               1
     1  C    0.901757
     2  C   -0.652312
     3  C    0.975723
     4  C   -1.107716
     5  C    2.039775
     6  C   -2.068718
     7  O   -0.560765
     8  C    0.498773
     9  C   -0.360572
    10  O   -0.547131
    11  O   -0.596458
    12  O   -0.550840
    13  H    0.139773
    14  H    0.145773
    15  H    0.390887
    16  H    0.172605
    17  H    0.173615
    18  H    0.172613
    19  H    0.461752
    20  H    0.371466
 Sum of Mulliken charges =  -0.00000

 Dipole moment (field-independent basis, Debye):
    X=             -2.3694    Y=              3.2401    Z=             -0.0006  Tot=              4.0140
 Quadrupole moment (field-independent basis, Debye-Ang):
   XX=            -67.8677   YY=            -66.5520   ZZ=            -72.1674
   XY=              9.3105   XZ=             -0.0014   YZ=              0.0016

  Exact polarizability: 153.625  -2.580 122.445   0.002   0.002  61.071
 Approx polarizability: 161.535  -9.411 148.074   0.003   0.003  77.075

                      1                      2                      3
                      A                      A                      A
 Frequencies --     48.7964                99.9611               185.0304
 Red. masses --      3.8045                10.8107                 5.8983
 Frc consts  --      0.0053                 0.0636                 0.1190
 IR Inten    --      1.3769                 0.1172                 4.1092

                      4                      5                      6
                      A                      A                      A
 Frequencies --    214.3258               241.0211               265.1756
 Red. masses --      4.3970                 1.0959                 4.6812
 Frc consts  --      0.1190                 0.0375                 0.1939
 IR Inten    --      1.1640                 0.0001                 1.7414

                      7                      8                      9
                      A                      A                      A
 Frequencies --    268.3907               339.6332               344.1200
 Red. masses --      4.7628                 5.8597                 1.1643
 Frc consts  --      0.2021                 0.3982                 0.0812
 IR Inten    --     11.4284                 8.0300                23.5206

                     10                     11                     12
                      A                      A                      A
 Frequencies --    363.2342               367.6775               376.5038
 Red. masses --      5.6756                 1.1128                 4.6259
 Frc consts  --      0.4412                 0.0886                 0.3864
 IR Inten    --      4.8411               182.5702                 5.4015

                     13                     14                     15
                      A                      A                      A
 Frequencies --    433.3695               519.3609               531.4994
 Red. masses --      6.3474                 7.7530                 6.8824
 Frc consts  --      0.7024                 1.2321                 1.1455
 IR Inten    --      3.6308                 1.9661                 9.2000

                     16                     17                     18
                      A                      A                      A
 Frequencies --    567.3807               575.5868               600.5155
 Red. masses --      3.4028                 6.1123                 4.1486
 Frc consts  --      0.6454                 1.1931                 0.8815
 IR Inten    --      1.0848                19.5088                 2.2505

                     19                     20                     21
                      A                      A                      A
 Frequencies --    609.9029               631.7183               644.6183
 Red. masses --      7.4327                 3.9887                 4.0747
 Frc consts  --      1.6290                 0.9378                 0.9976
 IR Inten    --      7.6242                13.3894                14.4070

                     22                     23                     24
                      A                      A                      A
 Frequencies --    716.3300               752.3369               771.4760
 Red. masses --      4.1318                 1.3265                 1.4124
 Frc consts  --      1.2492                 0.4424                 0.4953
 IR Inten    --     12.9202                65.6560                21.8334

                     25                     26                     27
                      A                      A                      A
 Frequencies --    917.3718               986.2407              1037.0963
 Red. masses --      1.0601                 2.3558                 3.5820
 Frc consts  --      0.5257                 1.3501                 2.2699
 IR Inten    --     84.4803                45.4024                16.8532

                     28                     29                     30
                      A                      A                      A
 Frequencies --   1050.3020              1088.1626              1100.1780
 Red. masses --      1.6942                 4.2456                 2.7006
 Frc consts  --      1.1012                 2.9620                 1.9259
 IR Inten    --      1.0463               108.6973                19.9786

                     31                     32                     33
                      A                      A                      A
 Frequencies --   1191.9877              1210.4998              1231.3710
 Red. masses --      1.3181                 1.4679                 1.7057
 Frc consts  --      1.1034                 1.2673                 1.5238
 IR Inten    --    177.1977                19.4067               163.7104

                     34                     35                     36
                      A                      A                      A
 Frequencies --   1278.6487              1319.2933              1354.3946
 Red. masses --      1.6759                 3.1835                 3.2873
 Frc consts  --      1.6143                 3.2647                 3.5529
 IR Inten    --    232.6719               101.2184               156.9032

                     37                     38                     39
                      A                      A                      A
 Frequencies --   1415.5260              1427.9793              1458.3889
 Red. masses --      2.7568                 1.7765                 2.7103
 Frc consts  --      3.2545                 2.1343                 3.3963
 IR Inten    --     25.5459                35.0839                38.7683

                     40                     41                     42
                      A                      A                      A
 Frequencies --   1479.1439              1497.6560              1502.3960
 Red. masses --      1.4642                 1.0472                 2.1272
 Frc consts  --      1.8874                 1.3839                 2.8290
 IR Inten    --     50.2297                11.7863               158.4168

                     43                     44                     45
                      A                      A                      A
 Frequencies --   1566.3006              1645.6349              1659.2601
 Red. masses --      2.5974                 4.2306                 7.6024
 Frc consts  --      3.7543                 6.7502                12.3319
 IR Inten    --     88.0576                 5.4007               378.4747

                     46                     47                     48
                      A                      A                      A
 Frequencies --   1692.5880              3096.4200              3156.2248
 Red. masses --      4.9913                 1.0345                 1.0709
 Frc consts  --      8.4249                 5.8438                 6.2857
 IR Inten    --    661.8407                 3.3049               446.1475

                     49                     50                     51
                      A                      A                      A
 Frequencies --   3176.0033              3203.6095              3228.7655
 Red. masses --      1.0996                 1.1060                 1.0923
 Frc consts  --      6.5352                 6.6880                 6.7090
 IR Inten    --      3.9047                18.0395                 2.6158

                     52                     53                     54
                      A                      A                      A
 Frequencies --   3233.2143              3840.5131              3841.3851
 Red. masses --      1.0924                 1.0663                 1.0663
 Frc consts  --      6.7285                 9.2660                 9.2707
 IR Inten    --      3.6295                85.6887                82.8794

 - Thermochemistry -
 -------------------
 Temperature   298.150 Kelvin.  Pressure   1.00000 Atm.
 Atom     1 has atomic number  6 and mass  12.00000

 Molecular mass:   168.04226 amu.
 Principal axes and moments of inertia in atomic units:
                           1         2         3
     Eigenvalues --  1170.859042364.649353524.48671
           X            0.99941   0.03436  -0.00002
           Y           -0.03436   0.99941  -0.00004
           Z            0.00002   0.00004   1.00000
 This molecule is an asymmetric top.
 Rotational symmetry number  1.
 Warning -- assumption of classical behavior for rotation
           may cause significant error
 Rotational temperatures (Kelvin)      0.07397     0.03663     0.02457
 Rotational constants (GHZ):           1.54138     0.76322     0.51206
 Zero-point vibrational energy     396888.2 (Joules/Mol)
                                   94.85855 (Kcal/Mol)
 Warning -- explicit consideration of  19 degrees of freedom as
           vibrations may cause significant error
 Vibrational temperatures:     70.21   143.82   266.22   308.37   346.78
          (Kelvin)            381.53   386.15   488.66   495.11   522.61
                              529.01   541.70   623.52   747.24   764.71
                              816.33   828.14   864.01   877.51   908.90
                              927.46  1030.64  1082.44  1109.98  1319.89
                             1418.98  1492.15  1511.15  1565.62  1582.91
                             1715.00  1741.64  1771.67  1839.69  1898.17
                             1948.67  2036.62  2054.54  2098.29  2128.16
                             2154.79  2161.61  2253.55  2367.70  2387.30
                             2435.25  4455.05  4541.10  4569.55  4609.27
                             4645.47  4651.87  5525.63  5526.89

 Zero-point correction=                           0.151167 (Hartree/Particle)
 Thermal correction to Energy=                    0.162136
 Thermal correction to Enthalpy=                  0.163080
 Thermal correction to Gibbs Free Energy=         0.114851
 Sum of electronic and zero-point Energies=           -609.889634
 Sum of electronic and thermal Energies=              -609.878665
 Sum of electronic and thermal Enthalpies=            -609.877721
 Sum of electronic and thermal Free Energies=         -609.925950

                     E (Thermal)             CV                S
                      KCal/Mol        Cal/Mol-Kelvin    Cal/Mol-Kelvin
 Total                  101.742             42.566            101.506
 Electronic               0.000              0.000              0.000
 Translational            0.889              2.981             41.265
 Rotational               0.889              2.981             30.657
 Vibrational             99.964             36.605             29.584
 Vibration     1          0.595              1.978              4.866
 Vibration     2          0.604              1.949              3.455
 Vibration     3          0.631              1.860              2.277
 Vibration     4          0.644              1.819              2.007
 Vibration     5          0.658              1.778              1.795
 Vibration     6          0.671              1.737              1.627
 Vibration     7          0.673              1.731              1.607
 Vibration     8          0.720              1.596              1.214
 Vibration     9          0.723              1.587              1.193
 Vibration    10          0.737              1.548              1.108
 Vibration    11          0.740              1.539              1.089
 Vibration    12          0.747              1.520              1.053
 Vibration    13          0.794              1.398              0.848
 Vibration    14          0.874              1.207              0.611
 Vibration    15          0.886              1.180              0.584
 Vibration    16          0.923              1.102              0.509
 Vibration    17          0.932              1.084              0.494
 Vibration    18          0.959              1.031              0.449
 Vibration    19          0.969              1.011              0.433

 Optimization completed.
    -- Stationary point found.
 Normal termination of Gaussian 09 at Thu Dec 19 10:19:58 2024.
