 Gaussian 09, Revision E.01,
 Gaussian 09:  ES64L-G09RevE.01 30-Nov-2015

 ----------------------------------------------------
 # opt freq b3lyp/6-31+g(d,p) EmpiricalDispersion=GD3
 ----------------------------------------------------

 ----------
 [No Title]
 ----------
 Symbolic Z-matrix:
 Charge =  1 Multiplicity = 1

 SCF Done:  E(RB3LYP) =  -610.985751803     A.U. after   14 cycles
 SCF Done:  E(RB3LYP) =  -610.985840395     A.U. after   12 cycles
 SCF Done:  E(RB3LYP) =  -610.985857018     A.U. after   12 cycles
 SCF Done:  E(RB3LYP) =  -610.985988942     A.U. after   11 cycles
 SCF Done:  E(RB3LYP) =  -610.985989702     A.U. after    9 cycles
 SCF Done:  E(RB3LYP) =  -610.985989975     A.U. after    8 cycles
 Optimization completed.
    -- Stationary point found.
 Normal termination of Gaussian 09 at Tue Dec 17 20:14:39 2024.

 ----------------------------------------------------------------------
 #N Geom=AllCheck Guess=TCheck SCRF=Check GenChk RB3LYP/6-31+G(d,p) Fre
 q
 ----------------------------------------------------------------------

 Structure from the checkpoint file:  "b3lypD3THAPyang.chk"
 ----------
 [No Title]
 ----------
 Charge =  1 Multiplicity = 1

                         Standard orientation:
 ---------------------------------------------------------------------
 Center     Atomic      Atomic             Coordinates (Angstroms)
 Number     Number       Type             X           Y           Z
 ---------------------------------------------------------------------
      1          6           0        1.551126   -1.264976   -0.000287
      2          6           0        2.286523   -0.074078   -0.000168
      3          6           0        1.636595    1.176776    0.000015
      4          6           0        0.259729    1.213083    0.000098
      5          6           0       -0.559300    0.024539    0.000019
      6          6           0        0.167378   -1.225972   -0.000210
      7          8           0       -0.553579   -2.359675   -0.000348
      8          6           0       -1.983867    0.082463    0.000201
      9          6           0       -2.911834   -1.084185    0.000206
     10          8           0       -2.634220    1.215868    0.000398
     11          8           0       -0.404507    2.403207    0.000235
     12          8           0        3.615808   -0.197940   -0.000256
     13          1           0        2.086164   -2.208606   -0.000453
     14          1           0        2.211813    2.097977    0.000056
     15          1           0        0.017378   -3.142828   -0.000495
     16          1           0       -2.734739   -1.715471   -0.875134
     17          1           0       -2.734398   -1.715760    0.875264
     18          1           0       -3.937709   -0.716842    0.000458
     19          1           0       -2.035068    1.996562    0.000408
     20          1           0        0.183780    3.172909    0.000590
     21          1           0        4.076663    0.654484   -0.000167
 ---------------------------------------------------------------------

 SCF Done:  E(RB3LYP) =  -610.985989975     A.U. after    1 cycles

 The electronic state is 1-A.
 Alpha  occ. eigenvalues --  -19.39025 -19.38190 -19.36581 -19.36358 -10.48133
 Alpha  occ. eigenvalues --  -10.46047 -10.45286 -10.45029 -10.38973 -10.36869
 Alpha  occ. eigenvalues --  -10.35655 -10.33954  -1.28383  -1.25994  -1.25218
 Alpha  occ. eigenvalues --   -1.24829  -1.03524  -0.96600  -0.92832  -0.91252
 Alpha  occ. eigenvalues --   -0.83721  -0.82046  -0.79603  -0.76625  -0.74223
 Alpha  occ. eigenvalues --   -0.72097  -0.68433  -0.66211  -0.63451  -0.62345
 Alpha  occ. eigenvalues --   -0.61431  -0.60997  -0.60055  -0.58587  -0.57698
 Alpha  occ. eigenvalues --   -0.56939  -0.56092  -0.54136  -0.53895  -0.52384
 Alpha  occ. eigenvalues --   -0.51826  -0.47728  -0.41611  -0.40466
 Alpha virt. eigenvalues --   -0.24831  -0.16805  -0.14994  -0.14058  -0.13058
 Alpha virt. eigenvalues --   -0.12696  -0.11017  -0.08543  -0.07964  -0.07682
 Alpha virt. eigenvalues --   -0.07545  -0.05790  -0.04776  -0.04531  -0.03991

 Mulliken charges:
               1
     1  C    1.016651
     2  C   -0.804870
     3  C    0.760448
     4  C   -0.959949
     5  C    2.166810
     6  C   -2.229784
     7  O   -0.519249
     8  C    0.616668
     9  C   -0.203502
    10  O   -0.383937
    11  O   -0.610373
    12  O   -0.464531
    13  H    0.158753
    14  H    0.135969
    15  H    0.414046
    16  H    0.214709
    17  H    0.214703
    18  H    0.202781
    19  H    0.459492
    20  H    0.428768
    21  H    0.386399
 Sum of Mulliken charges =   1.00000

 Dipole moment (field-independent basis, Debye):
    X=              1.6929    Y=              1.6777    Z=              0.0006  Tot=              2.3834
 Quadrupole moment (field-independent basis, Debye-Ang):
   XX=            -43.2032   YY=            -36.7715   ZZ=            -69.7122
   XY=              8.8463   XZ=             -0.0011   YZ=              0.0054

  Exact polarizability: 164.262   2.123 116.742  -0.007   0.009  55.830
 Approx polarizability: 272.075  -4.241 185.740  -0.013   0.014  84.287

                      1                      2                      3
                      A                      A                      A
 Frequencies --     57.5967                90.7442               194.7905
 Red. masses --      4.7090                 5.1298                 4.9472
 Frc consts  --      0.0092                 0.0249                 0.1106
 IR Inten    --      0.4981                 0.1375                 2.0588

                      4                      5                      6
                      A                      A                      A
 Frequencies --    209.9983               254.5376               270.1988
 Red. masses --      4.6989                 1.1808                 4.8807
 Frc consts  --      0.1221                 0.0451                 0.2099
 IR Inten    --      3.6332                 3.9764                 1.1575

                      7                      8                      9
                      A                      A                      A
 Frequencies --    282.4937               341.0151               351.1911
 Red. masses --      2.4858                 1.2392                 5.5334
 Frc consts  --      0.1169                 0.0849                 0.4021
 IR Inten    --     39.5912                92.3728                12.8738

                     10                     11                     12
                      A                      A                      A
 Frequencies --    374.6096               397.7207               427.6570
 Red. masses --      5.2933                 4.9092                 5.4533
 Frc consts  --      0.4377                 0.4575                 0.5876
 IR Inten    --      5.6093                 4.7787                 4.5696

                     13                     14                     15
                      A                      A                      A
 Frequencies --    448.5631               465.0655               525.7902
 Red. masses --      1.1299                 1.1199                 7.3407
 Frc consts  --      0.1340                 0.1427                 1.1957
 IR Inten    --     24.6697               191.7846                 6.1779

                     16                     17                     18
                      A                      A                      A
 Frequencies --    544.9755               570.0854               606.4121
 Red. masses --      3.9975                 2.7747                 7.8541
 Frc consts  --      0.6995                 0.5313                 1.7017
 IR Inten    --      7.9771                 0.2980                 0.4480

                     19                     20                     21
                      A                      A                      A
 Frequencies --    622.2118               646.5524               650.0041
 Red. masses --      3.3646                 3.4943                 2.9513
 Frc consts  --      0.7675                 0.8606                 0.7347
 IR Inten    --     10.5089                29.6613                21.8278

                     22                     23                     24
                      A                      A                      A
 Frequencies --    715.6123               729.4853               806.2935
 Red. masses --      4.3586                 4.9442                 1.6437
 Frc consts  --      1.3151                 1.5502                 0.6296
 IR Inten    --      5.7395                 4.1642                41.7036

                     25                     26                     27
                      A                      A                      A
 Frequencies --    823.7385               839.8783               986.1866
 Red. masses --      1.2617                 1.5544                 2.3029
 Frc consts  --      0.5044                 0.6460                 1.3196
 IR Inten    --    123.8016                24.6733                35.6469

                     28                     29                     30
                      A                      A                      A
 Frequencies --   1036.3562              1051.7610              1080.8742
 Red. masses --      3.4009                 1.6603                 3.2401
 Frc consts  --      2.1521                 1.0821                 2.2303
 IR Inten    --      0.4156                 0.4929               117.5136

                     31                     32                     33
                      A                      A                      A
 Frequencies --   1090.1223              1178.2725              1193.3133
 Red. masses --      2.2238                 1.3052                 1.2201
 Frc consts  --      1.5570                 1.0676                 1.0237
 IR Inten    --     42.9236                98.4536                68.4054

                     34                     35                     36
                      A                      A                      A
 Frequencies --   1216.5587              1243.0183              1290.3374
 Red. masses --      1.5408                 2.3305                 2.1778
 Frc consts  --      1.3436                 2.1215                 2.1363
 IR Inten    --    132.5710                48.3218                42.7491

                     37                     38                     39
                      A                      A                      A
 Frequencies --   1310.7067              1387.0926              1399.3176
 Red. masses --      2.0496                 2.7141                 1.1899
 Frc consts  --      2.0746                 3.0767                 1.3728
 IR Inten    --    187.8842               343.9582                27.5244

                     40                     41                     42
                      A                      A                      A
 Frequencies --   1432.0812              1435.8089              1468.3553
 Red. masses --      3.2422                 2.2882                 1.0433
 Frc consts  --      3.9176                 2.7793                 1.3253
 IR Inten    --     38.9057                32.0518                17.9641

                     43                     44                     45
                      A                      A                      A
 Frequencies --   1482.6253              1518.2933              1546.0677
 Red. masses --      2.0261                 2.3241                 3.9655
 Frc consts  --      2.6240                 3.1565                 5.5848
 IR Inten    --    387.2544               241.5505               205.7897

                     46                     47                     48
                      A                      A                      A
 Frequencies --   1572.4936              1607.2291              1683.9442
 Red. masses --      3.3825                 5.6291                 6.7223
 Frc consts  --      4.9280                 8.5674                11.2311
 IR Inten    --    204.3679               196.5439               817.3745

                     49                     50                     51
                      A                      A                      A
 Frequencies --   3068.1010              3133.0673              3180.7717
 Red. masses --      1.0362                 1.0985                 1.1063
 Frc consts  --      5.7472                 6.3534                 6.5943
 IR Inten    --     13.2872                 1.0639                 5.5989

                     52                     53                     54
                      A                      A                      A
 Frequencies --   3191.8113              3214.1045              3486.9088
 Red. masses --      1.0932                 1.0933                 1.0667
 Frc consts  --      6.5615                 6.6545                 7.6417
 IR Inten    --      0.0425                 2.7647               266.8448

                     55                     56                     57
                      A                      A                      A
 Frequencies --   3792.5740              3797.2642              3802.1464
 Red. masses --      1.0667                 1.0670                 1.0671
 Frc consts  --      9.0399                 9.0648                 9.0893
 IR Inten    --    177.8377               138.5761               206.0684

 - Thermochemistry -
 -------------------
 Temperature   298.150 Kelvin.  Pressure   1.00000 Atm.
 Atom     1 has atomic number  6 and mass  12.00000

 Molecular mass:   169.05008 amu.
 Principal axes and moments of inertia in atomic units:
                           1         2         3
     Eigenvalues --  1189.115852385.841503563.93037
           X            0.99943   0.03371   0.00008
           Y           -0.03371   0.99943  -0.00012
           Z           -0.00009   0.00012   1.00000
 This molecule is an asymmetric top.
 Rotational symmetry number  1.
 Warning -- assumption of classical behavior for rotation
           may cause significant error
 Rotational temperatures (Kelvin)      0.07284     0.03630     0.02430
 Rotational constants (GHZ):           1.51772     0.75644     0.50639
 Zero-point vibrational energy     431402.0 (Joules/Mol)
                                  103.10756 (Kcal/Mol)
 Warning -- explicit consideration of  18 degrees of freedom as
           vibrations may cause significant error
 Vibrational temperatures:     82.87   130.56   280.26   302.14   366.22
          (Kelvin)            388.76   406.44   490.64   505.29   538.98
                              572.23   615.30   645.38   669.12   756.49
                              784.10   820.22   872.49   895.22   930.24
                              935.21  1029.61  1049.57  1160.08  1185.17
                             1208.40  1418.90  1491.08  1513.25  1555.13
                             1568.44  1695.27  1716.91  1750.35  1788.42
                             1856.51  1885.81  1995.71  2013.30  2060.44
                             2065.81  2112.63  2133.16  2184.48  2224.44
                             2262.46  2312.44  2422.82  4414.31  4507.78
                             4576.42  4592.30  4624.37  5016.88  5456.66
                             5463.41  5470.43

 Zero-point correction=                           0.164312 (Hartree/Particle)
 Thermal correction to Energy=                    0.175263
 Thermal correction to Enthalpy=                  0.176207
 Thermal correction to Gibbs Free Energy=         0.128153
 Sum of electronic and zero-point Energies=           -610.821678
 Sum of electronic and thermal Energies=              -610.810727
 Sum of electronic and thermal Enthalpies=            -610.809783
 Sum of electronic and thermal Free Energies=         -610.857837

                     E (Thermal)             CV                S
                      KCal/Mol        Cal/Mol-Kelvin    Cal/Mol-Kelvin
 Total                  109.979             43.329            101.137
 Electronic               0.000              0.000              0.000
 Translational            0.889              2.981             41.283
 Rotational               0.889              2.981             30.692
 Vibrational            108.201             37.367             29.161
 Vibration     1          0.596              1.974              4.538
 Vibration     2          0.602              1.956              3.644
 Vibration     3          0.635              1.847              2.182
 Vibration     4          0.642              1.826              2.044
 Vibration     5          0.665              1.755              1.699
 Vibration     6          0.674              1.728              1.595
 Vibration     7          0.682              1.706              1.519
 Vibration     8          0.721              1.594              1.207
 Vibration     9          0.728              1.573              1.161
 Vibration    10          0.746              1.524              1.061
 Vibration    11          0.764              1.475              0.971
 Vibration    12          0.789              1.410              0.866
 Vibration    13          0.808              1.364              0.800
 Vibration    14          0.823              1.328              0.752
 Vibration    15          0.881              1.193              0.597
 Vibration    16          0.900              1.151              0.555
 Vibration    17          0.926              1.096              0.504
 Vibration    18          0.965              1.018              0.439

 Optimization completed.
    -- Stationary point found.
 Normal termination of Gaussian 09 at Tue Dec 17 20:15:43 2024.
