 Gaussian 09, Revision E.01,
 Gaussian 09:  ES64L-G09RevE.01 30-Nov-2015

 ----------------------------------------------------
 # opt freq b3lyp/6-31+g(d,p) EmpiricalDispersion=GD3
 ----------------------------------------------------

 ----------
 [No Title]
 ----------
 Symbolic Z-matrix:
 Charge =  0 Multiplicity = 1

 SCF Done:  E(RB3LYP) =  -610.631528719     A.U. after   15 cycles
 SCF Done:  E(RB3LYP) =  -610.631325581     A.U. after   13 cycles
 SCF Done:  E(RB3LYP) =  -610.631708365     A.U. after    9 cycles
 SCF Done:  E(RB3LYP) =  -610.631708735     A.U. after   12 cycles
 SCF Done:  E(RB3LYP) =  -610.631812719     A.U. after   11 cycles
 SCF Done:  E(RB3LYP) =  -610.631821165     A.U. after   11 cycles
 SCF Done:  E(RB3LYP) =  -610.631818127     A.U. after   10 cycles
 SCF Done:  E(RB3LYP) =  -610.631822209     A.U. after   10 cycles
 Optimization completed.
    -- Stationary point found.
 Normal termination of Gaussian 09 at Tue Dec 17 20:00:00 2024.

 ----------------------------------------------------------------------
 #N Geom=AllCheck Guess=TCheck SCRF=Check GenChk RB3LYP/6-31+G(d,p) Fre
 q
 ----------------------------------------------------------------------

 Structure from the checkpoint file:  "b3lypD3THAP.chk"
 ----------
 [No Title]
 ----------
 Charge =  0 Multiplicity = 1

                         Standard orientation:
 ---------------------------------------------------------------------
 Center     Atomic      Atomic             Coordinates (Angstroms)
 Number     Number       Type             X           Y           Z
 ---------------------------------------------------------------------
      1          6           0       -1.528656    1.250441    0.000055
      2          6           0       -2.263287    0.056801    0.000048
      3          6           0       -1.627276   -1.179328   -0.000017
      4          6           0       -0.228819   -1.231430   -0.000078
      5          6           0        0.569859   -0.036761   -0.000062
      6          6           0       -0.141187    1.197178    0.000005
      7          8           0        0.579646    2.358169    0.000031
      8          6           0        2.032082   -0.168116   -0.000087
      9          6           0        2.959852    1.023716    0.000025
     10          8           0        2.555840   -1.303702    0.000120
     11          8           0        0.331708   -2.443621   -0.000186
     12          8           0       -3.618979    0.183141    0.000104
     13          1           0       -2.057333    2.198314    0.000107
     14          1           0       -2.180781   -2.112662   -0.000035
     15          1           0       -0.024696    3.112169    0.000085
     16          1           0        2.783563    1.654171    0.875856
     17          1           0        3.984823    0.650818    0.000140
     18          1           0        2.783758    1.654169   -0.875845
     19          1           0        1.324849   -2.294496   -0.000295
     20          1           0       -4.035312   -0.689385    0.000091
 ---------------------------------------------------------------------

 SCF Done:  E(RB3LYP) =  -610.631822209     A.U. after    1 cycles

 The electronic state is 1-A.
 Alpha  occ. eigenvalues --  -19.21554 -19.21353 -19.17815 -19.15614 -10.29506
 Alpha  occ. eigenvalues --  -10.28913 -10.28498 -10.28083 -10.21313 -10.20372
 Alpha  occ. eigenvalues --  -10.19860 -10.19025  -1.09643  -1.09212  -1.07762
 Alpha  occ. eigenvalues --   -1.04129  -0.86713  -0.78665  -0.76153  -0.73856
 Alpha  occ. eigenvalues --   -0.66531  -0.64638  -0.60525  -0.58433  -0.52927
 Alpha  occ. eigenvalues --   -0.52601  -0.51122  -0.48746  -0.46409  -0.45257
 Alpha  occ. eigenvalues --   -0.43987  -0.43630  -0.42378  -0.41934  -0.41563
 Alpha  occ. eigenvalues --   -0.40635  -0.39064  -0.37458  -0.37253  -0.36474
 Alpha  occ. eigenvalues --   -0.30963  -0.27053  -0.24914  -0.23689
 Alpha virt. eigenvalues --   -0.06206  -0.01705  -0.01058  -0.00998   0.01617
 Alpha virt. eigenvalues --    0.02239   0.03234   0.03708   0.04326   0.04608
 Alpha virt. eigenvalues --    0.05971   0.06421   0.07289   0.07666   0.08821

 Mulliken charges:
               1
     1  C    0.899445
     2  C   -0.649070
     3  C    0.924101
     4  C   -1.165318
     5  C    2.163174
     6  C   -2.171753
     7  O   -0.545722
     8  C    0.645374
     9  C   -0.477653
    10  O   -0.499428
    11  O   -0.551213
    12  O   -0.523080
    13  H    0.115725
    14  H    0.121814
    15  H    0.383972
    16  H    0.178333
    17  H    0.169901
    18  H    0.178320
    19  H    0.438546
    20  H    0.364533
 Sum of Mulliken charges =  -0.00000

 Dipole moment (field-independent basis, Debye):
    X=             -2.4109    Y=              3.0848    Z=             -0.0003  Tot=              3.9152
 Quadrupole moment (field-independent basis, Debye-Ang):
   XX=            -67.5519   YY=            -66.2703   ZZ=            -71.9415
   XY=              8.8607   XZ=             -0.0013   YZ=              0.0011

  Exact polarizability: 155.551  -2.050 123.257  -0.001   0.002  61.267
 Approx polarizability: 234.456 -15.565 204.783  -0.002   0.002  92.005

                      1                      2                      3
                      A                      A                      A
 Frequencies --     59.1857               107.4060               201.2410
 Red. masses --      3.8573                 9.8716                 4.5309
 Frc consts  --      0.0080                 0.0671                 0.1081
 IR Inten    --      1.1131                 0.3171                 3.7270

                      4                      5                      6
                      A                      A                      A
 Frequencies --    224.1832               248.9118               269.5588
 Red. masses --      4.7991                 1.1326                 4.7570
 Frc consts  --      0.1421                 0.0413                 0.2037
 IR Inten    --      1.0428                 0.0196                11.7085

                      7                      8                      9
                      A                      A                      A
 Frequencies --    285.8363               341.6918               363.7877
 Red. masses --      4.0536                 5.8482                 5.7113
 Frc consts  --      0.1951                 0.4023                 0.4453
 IR Inten    --      2.7430                 7.5553                 4.9870

                     10                     11                     12
                      A                      A                      A
 Frequencies --    376.3702               378.0499               391.1456
 Red. masses --      1.1799                 4.6112                 1.1179
 Frc consts  --      0.0985                 0.3883                 0.1008
 IR Inten    --      7.5340                 5.5019               195.5279

                     13                     14                     15
                      A                      A                      A
 Frequencies --    435.2427               530.7921               577.2183
 Red. masses --      6.2677                 6.9748                 6.2312
 Frc consts  --      0.6996                 1.1578                 1.2232
 IR Inten    --      4.0999                 9.8606                19.7907

                     16                     17                     18
                      A                      A                      A
 Frequencies --    580.8157               610.9071               623.4079
 Red. masses --      3.0131                 7.3861                 3.1992
 Frc consts  --      0.5989                 1.6241                 0.7325
 IR Inten    --      0.1475                 8.3630                 1.0850

                     19                     20                     21
                      A                      A                      A
 Frequencies --    639.8739               645.4564               713.8526
 Red. masses --      2.8283                 3.9885                 4.1373
 Frc consts  --      0.6823                 0.9790                 1.2422
 IR Inten    --     12.6649                14.7744                12.2151

                     22                     23                     24
                      A                      A                      A
 Frequencies --    728.5807               794.5538               809.9496
 Red. masses --      5.2018                 1.7006                 1.6608
 Frc consts  --      1.6269                 0.6326                 0.6419
 IR Inten    --      0.0801                40.4275                48.2226

                     25                     26                     27
                      A                      A                      A
 Frequencies --    949.8910               977.8022              1033.1108
 Red. masses --      1.0626                 2.3201                 3.5092
 Frc consts  --      0.5649                 1.3070                 2.2067
 IR Inten    --     84.2811                48.3253                13.1194

                     28                     29                     30
                      A                      A                      A
 Frequencies --   1048.1433              1085.6270              1093.0592
 Red. masses --      1.7811                 2.9402                 3.6361
 Frc consts  --      1.1529                 2.0417                 2.5596
 IR Inten    --      2.4066                87.9379                38.6222

                     31                     32                     33
                      A                      A                      A
 Frequencies --   1183.7640              1203.3572              1223.3151
 Red. masses --      1.2942                 1.4354                 1.8875
 Frc consts  --      1.0685                 1.2246                 1.6643
 IR Inten    --    166.1000                18.1763               178.7764

                     34                     35                     36
                      A                      A                      A
 Frequencies --   1273.4431              1308.0546              1338.3363
 Red. masses --      1.6848                 3.3204                 3.5197
 Frc consts  --      1.6097                 3.3473                 3.7144
 IR Inten    --    237.8674               101.7094               152.0867

                     37                     38                     39
                      A                      A                      A
 Frequencies --   1402.5349              1411.0539              1451.0133
 Red. masses --      1.7657                 2.4963                 2.2827
 Frc consts  --      2.0464                 2.9284                 2.8316
 IR Inten    --     49.2006                11.8939                49.4339

                     40                     41                     42
                      A                      A                      A
 Frequencies --   1466.2022              1480.7972              1491.8150
 Red. masses --      1.4207                 1.0459                 2.7709
 Frc consts  --      1.7994                 1.3512                 3.6333
 IR Inten    --     14.8763                11.8040               192.6915

                     43                     44                     45
                      A                      A                      A
 Frequencies --   1558.5483              1637.4846              1656.7115
 Red. masses --      2.5178                 4.3409                 8.0811
 Frc consts  --      3.6033                 6.8578                13.0682
 IR Inten    --     94.7326               144.8448               282.3000

                     46                     47                     48
                      A                      A                      A
 Frequencies --   1682.2009              3061.6757              3074.9766
 Red. masses --      4.5647                 1.0353                 1.0717
 Frc consts  --      7.6106                 5.7178                 5.9706
 IR Inten    --    696.4827                10.3765               479.4373

                     49                     50                     51
                      A                      A                      A
 Frequencies --   3131.5619              3164.5329              3198.0024
 Red. masses --      1.0993                 1.1061                 1.0918
 Frc consts  --      6.3517                 6.5262                 6.5791
 IR Inten    --      4.2218                16.4047                 3.4151

                     52                     53                     54
                      A                      A                      A
 Frequencies --   3202.9212              3822.0414              3824.5395
 Red. masses --      1.0921                 1.0663                 1.0663
 Frc consts  --      6.6006                 9.1770                 9.1893
 IR Inten    --      4.0302                92.1247                68.2385

 - Thermochemistry -
 -------------------
 Temperature   298.150 Kelvin.  Pressure   1.00000 Atm.
 Atom     1 has atomic number  6 and mass  12.00000

 Molecular mass:   168.04226 amu.
 Principal axes and moments of inertia in atomic units:
                           1         2         3
     Eigenvalues --  1170.966002366.191233526.11382
           X            0.99941   0.03440   0.00001
           Y           -0.03440   0.99941  -0.00003
           Z           -0.00001   0.00003   1.00000
 This molecule is an asymmetric top.
 Rotational symmetry number  1.
 Warning -- assumption of classical behavior for rotation
           may cause significant error
 Rotational temperatures (Kelvin)      0.07397     0.03660     0.02456
 Rotational constants (GHZ):           1.54124     0.76272     0.51182
 Zero-point vibrational energy     397007.9 (Joules/Mol)
                                   94.88716 (Kcal/Mol)
 Warning -- explicit consideration of  17 degrees of freedom as
           vibrations may cause significant error
 Vibrational temperatures:     85.15   154.53   289.54   322.55   358.13
          (Kelvin)            387.83   411.25   491.62   523.41   541.51
                              543.93   562.77   626.22   763.69   830.49
                              835.66   878.96   896.94   920.63   928.67
                             1027.07  1048.26  1143.18  1165.34  1366.68
                             1406.84  1486.41  1508.04  1561.97  1572.67
                             1703.17  1731.36  1760.08  1832.20  1882.00
                             1925.57  2017.93  2030.19  2087.68  2109.54
                             2130.53  2146.39  2242.40  2355.97  2383.64
                             2420.31  4405.06  4424.20  4505.61  4553.05
                             4601.21  4608.28  5499.06  5502.65

 Zero-point correction=                           0.151212 (Hartree/Particle)
 Thermal correction to Energy=                    0.161844
 Thermal correction to Enthalpy=                  0.162788
 Thermal correction to Gibbs Free Energy=         0.115361
 Sum of electronic and zero-point Energies=           -610.480610
 Sum of electronic and thermal Energies=              -610.469978
 Sum of electronic and thermal Enthalpies=            -610.469034
 Sum of electronic and thermal Free Energies=         -610.516461

                     E (Thermal)             CV                S
                      KCal/Mol        Cal/Mol-Kelvin    Cal/Mol-Kelvin
 Total                  101.559             41.716             99.819
 Electronic               0.000              0.000              0.000
 Translational            0.889              2.981             41.265
 Rotational               0.889              2.981             30.658
 Vibrational             99.781             35.754             27.895
 Vibration     1          0.597              1.974              4.484
 Vibration     2          0.606              1.943              3.315
 Vibration     3          0.638              1.838              2.122
 Vibration     4          0.649              1.804              1.925
 Vibration     5          0.662              1.765              1.738
 Vibration     6          0.674              1.729              1.599
 Vibration     7          0.684              1.700              1.498
 Vibration     8          0.721              1.592              1.204
 Vibration     9          0.737              1.547              1.106
 Vibration    10          0.747              1.520              1.054
 Vibration    11          0.748              1.517              1.047
 Vibration    12          0.759              1.489              0.996
 Vibration    13          0.796              1.393              0.842
 Vibration    14          0.886              1.182              0.585
 Vibration    15          0.934              1.081              0.491
 Vibration    16          0.938              1.073              0.484
 Vibration    17          0.970              1.009              0.431

 Optimization completed.
    -- Stationary point found.
 Normal termination of Gaussian 09 at Tue Dec 17 20:00:57 2024.
