 Gaussian 09, Revision E.01,
 Gaussian 09:  ES64L-G09RevE.01 30-Nov-2015

 -----------------------------------------------------
 # opt freq b3pw91/6-31+g(d,p) EmpiricalDispersion=GD3
 -----------------------------------------------------

 ----------
 [No Title]
 ----------
 Symbolic Z-matrix:
 Charge =  0 Multiplicity = 1

 SCF Done:  E(RB3PW91) =  -610.397616079     A.U. after   15 cycles
 SCF Done:  E(RB3PW91) =  -610.397548056     A.U. after   12 cycles
 SCF Done:  E(RB3PW91) =  -610.397628118     A.U. after    7 cycles
 SCF Done:  E(RB3PW91) =  -610.397633687     A.U. after   10 cycles
 SCF Done:  E(RB3PW91) =  -610.397634846     A.U. after    9 cycles
 SCF Done:  E(RB3PW91) =  -610.397634827     A.U. after    9 cycles
 SCF Done:  E(RB3PW91) =  -610.397635345     A.U. after    9 cycles
 Optimization completed.
    -- Stationary point found.
 Normal termination of Gaussian 09 at Thu Dec 19 12:13:14 2024.

 ----------------------------------------------------------------------
 #N Geom=AllCheck Guess=TCheck SCRF=Check GenChk RB3PW91/6-31+G(d,p) Fr
 eq
 ----------------------------------------------------------------------

 Structure from the checkpoint file:  "B3PW91D3THAP.chk"
 ----------
 [No Title]
 ----------
 Charge =  0 Multiplicity = 1

                         Standard orientation:
 ---------------------------------------------------------------------
 Center     Atomic      Atomic             Coordinates (Angstroms)
 Number     Number       Type             X           Y           Z
 ---------------------------------------------------------------------
      1          6           0       -1.527849    1.246398    0.000067
      2          6           0       -2.259439    0.052745    0.000004
      3          6           0       -1.621842   -1.180538   -0.000040
      4          6           0       -0.225059   -1.229682   -0.000020
      5          6           0        0.567885   -0.034011    0.000034
      6          6           0       -0.142234    1.197071    0.000079
      7          8           0        0.574373    2.352460    0.000125
      8          6           0        2.024887   -0.165652    0.000018
      9          6           0        2.949092    1.021594    0.000002
     10          8           0        2.546713   -1.300512   -0.000213
     11          8           0        0.342234   -2.430915   -0.000033
     12          8           0       -3.608870    0.176320   -0.000007
     13          1           0       -2.060328    2.192549    0.000101
     14          1           0       -2.172480   -2.115930   -0.000081
     15          1           0       -0.031751    3.102461    0.000151
     16          1           0        2.772201    1.651680    0.875896
     17          1           0        3.974526    0.650192   -0.000125
     18          1           0        2.772027    1.651801   -0.875770
     19          1           0        1.336920   -2.262361    0.000042
     20          1           0       -4.019357   -0.696756   -0.000051
 ---------------------------------------------------------------------

 SCF Done:  E(RB3PW91) =  -610.397635345     A.U. after    1 cycles

 The electronic state is 1-A.
 Alpha  occ. eigenvalues --  -19.20541 -19.20291 -19.16594 -19.14630 -10.28121
 Alpha  occ. eigenvalues --  -10.27521 -10.27090 -10.26623 -10.19892 -10.18939
 Alpha  occ. eigenvalues --  -10.18401 -10.17595  -1.10301  -1.09840  -1.08343
 Alpha  occ. eigenvalues --   -1.04585  -0.87079  -0.79040  -0.76371  -0.74206
 Alpha  occ. eigenvalues --   -0.66858  -0.64884  -0.60799  -0.58652  -0.53214
 Alpha  occ. eigenvalues --   -0.52770  -0.51298  -0.48825  -0.46717  -0.45324
 Alpha  occ. eigenvalues --   -0.44152  -0.43876  -0.42448  -0.41986  -0.41840
 Alpha  occ. eigenvalues --   -0.40822  -0.39018  -0.37414  -0.37185  -0.36614
 Alpha  occ. eigenvalues --   -0.31011  -0.27054  -0.24984  -0.23697
 Alpha virt. eigenvalues --   -0.06193  -0.00778  -0.00486   0.00157   0.02472
 Alpha virt. eigenvalues --    0.02752   0.04409   0.04778   0.05264   0.05849
 Alpha virt. eigenvalues --    0.07082   0.07509   0.08457   0.08685   0.10038

 Mulliken charges:
               1
     1  C    1.163130
     2  C   -0.928346
     3  C    1.181192
     4  C   -1.426448
     5  C    2.476435
     6  C   -2.557333
     7  O   -0.513639
     8  C    0.497789
     9  C   -0.453444
    10  O   -0.475506
    11  O   -0.525676
    12  O   -0.498820
    13  H    0.140355
    14  H    0.146521
    15  H    0.387770
    16  H    0.193736
    17  H    0.189223
    18  H    0.193745
    19  H    0.440577
    20  H    0.368739
 Sum of Mulliken charges =  -0.00000

 Dipole moment (field-independent basis, Debye):
    X=             -2.3838    Y=              3.1262    Z=              0.0004  Tot=              3.9314
 Quadrupole moment (field-independent basis, Debye-Ang):
   XX=            -66.1684   YY=            -65.1496   ZZ=            -71.4509
   XY=              8.8568   XZ=              0.0014   YZ=             -0.0004

  Exact polarizability: 153.847  -2.010 121.486   0.001   0.003  59.914
 Approx polarizability: 232.774 -15.564 202.122  -0.002   0.006  88.612

                      1                      2                      3
                      A                      A                      A
 Frequencies --     58.8783               109.7083               201.1160
 Red. masses --      3.8844                 9.5444                 4.2267
 Frc consts  --      0.0079                 0.0677                 0.1007
 IR Inten    --      1.1489                 0.2785                 4.3582

                      4                      5                      6
                      A                      A                      A
 Frequencies --    223.6681               245.8014               269.8536
 Red. masses --      4.9219                 1.1445                 4.6810
 Frc consts  --      0.1451                 0.0407                 0.2008
 IR Inten    --      0.8129                 0.0495                12.0589

                      7                      8                      9
                      A                      A                      A
 Frequencies --    282.9567               341.7108               364.2481
 Red. masses --      4.1034                 5.7990                 5.7340
 Frc consts  --      0.1936                 0.3989                 0.4482
 IR Inten    --      3.0170                 7.9951                 4.7442

                     10                     11                     12
                      A                      A                      A
 Frequencies --    379.6677               380.6728               399.0214
 Red. masses --      4.5259                 1.1797                 1.1156
 Frc consts  --      0.3844                 0.1007                 0.1047
 IR Inten    --      5.5307                20.2620               181.6661

                     13                     14                     15
                      A                      A                      A
 Frequencies --    438.1352               528.0524               578.7165
 Red. masses --      6.2880                 6.9401                 6.0558
 Frc consts  --      0.7112                 1.1402                 1.1950
 IR Inten    --      4.4582                 9.0395                20.6295

                     16                     17                     18
                      A                      A                      A
 Frequencies --    580.7425               614.9501               625.8240
 Red. masses --      2.9439                 7.5115                 3.1046
 Frc consts  --      0.5850                 1.6736                 0.7164
 IR Inten    --      0.1760                 6.4154                 1.2620

                     19                     20                     21
                      A                      A                      A
 Frequencies --    642.1812               645.7405               718.5565
 Red. masses --      2.7875                 3.9939                 4.0381
 Frc consts  --      0.6773                 0.9812                 1.2284
 IR Inten    --     13.2035                16.2845                13.0969

                     22                     23                     24
                      A                      A                      A
 Frequencies --    725.8286               791.1969               805.7842
 Red. masses --      5.3942                 1.7291                 1.6668
 Frc consts  --      1.6743                 0.6377                 0.6376
 IR Inten    --      0.0323                50.2468                40.0816

                     25                     26                     27
                      A                      A                      A
 Frequencies --    981.0722               984.0862              1037.3426
 Red. masses --      2.1464                 1.0635                 3.3272
 Frc consts  --      1.2172                 0.6068                 2.1095
 IR Inten    --     42.2293                84.9245                11.7278

                     28                     29                     30
                      A                      A                      A
 Frequencies --   1042.2379              1089.6891              1101.9596
 Red. masses --      1.8007                 2.4837                 4.2698
 Frc consts  --      1.1525                 1.7376                 3.0549
 IR Inten    --      2.0640                43.7593                69.6019

                     31                     32                     33
                      A                      A                      A
 Frequencies --   1185.0333              1207.2505              1233.9796
 Red. masses --      1.2480                 1.3695                 2.1373
 Frc consts  --      1.0325                 1.1760                 1.9175
 IR Inten    --    150.3079                21.9376               186.0236

                     34                     35                     36
                      A                      A                      A
 Frequencies --   1279.8948              1321.8456              1352.6548
 Red. masses --      1.6663                 3.0260                 2.7479
 Frc consts  --      1.6082                 3.1152                 2.9622
 IR Inten    --    218.2154               110.6701               118.3507

                     37                     38                     39
                      A                      A                      A
 Frequencies --   1402.2833              1426.8682              1452.8900
 Red. masses --      1.6194                 4.2193                 1.2366
 Frc consts  --      1.8762                 5.0613                 1.5380
 IR Inten    --    111.4074                 0.9252                38.4509

                     40                     41                     42
                      A                      A                      A
 Frequencies --   1473.7041              1477.9863              1505.3282
 Red. masses --      1.0449                 2.8456                 3.6017
 Frc consts  --      1.3370                 3.6624                 4.8087
 IR Inten    --     13.0919                 3.7130               202.3263

                     43                     44                     45
                      A                      A                      A
 Frequencies --   1570.6687              1651.4912              1672.6678
 Red. masses --      2.6205                 4.2874                 8.3775
 Frc consts  --      3.8089                 6.8897                13.8096
 IR Inten    --     96.5677               159.3008               292.8043

                     46                     47                     48
                      A                      A                      A
 Frequencies --   1698.7371              2991.0528              3071.0413
 Red. masses --      4.7118                 1.0745                 1.0354
 Frc consts  --      8.0110                 5.6640                 5.7534
 IR Inten    --    725.8876               539.3336                 0.7925

                     49                     50                     51
                      A                      A                      A
 Frequencies --   3150.5693              3183.4968              3210.0577
 Red. masses --      1.0994                 1.1061                 1.0922
 Frc consts  --      6.4294                 6.6046                 6.6309
 IR Inten    --      2.9028                12.3366                 3.0077

                     52                     53                     54
                      A                      A                      A
 Frequencies --   3215.3044              3855.8269              3857.5922
 Red. masses --      1.0924                 1.0662                 1.0662
 Frc consts  --      6.6538                 9.3395                 9.3483
 IR Inten    --      3.4216                98.5463                70.2118

 - Thermochemistry -
 -------------------
 Temperature   298.150 Kelvin.  Pressure   1.00000 Atm.
 Atom     1 has atomic number  6 and mass  12.00000

 Molecular mass:   168.04226 amu.
 Principal axes and moments of inertia in atomic units:
                           1         2         3
     Eigenvalues --  1163.718882352.482123505.15804
           X            0.99941   0.03443   0.00001
           Y           -0.03443   0.99941  -0.00004
           Z           -0.00001   0.00004   1.00000
 This molecule is an asymmetric top.
 Rotational symmetry number  1.
 Warning -- assumption of classical behavior for rotation
           may cause significant error
 Rotational temperatures (Kelvin)      0.07443     0.03682     0.02471
 Rotational constants (GHZ):           1.55084     0.76716     0.51488
 Zero-point vibrational energy     398581.5 (Joules/Mol)
                                   95.26327 (Kcal/Mol)
 Warning -- explicit consideration of  17 degrees of freedom as
           vibrations may cause significant error
 Vibrational temperatures:     84.71   157.85   289.36   321.81   353.65
          (Kelvin)            388.26   407.11   491.65   524.07   546.26
                              547.70   574.10   630.38   759.75   832.64
                              835.56   884.77   900.42   923.95   929.08
                             1033.84  1044.30  1138.35  1159.34  1411.54
                             1415.88  1492.50  1499.55  1567.82  1585.47
                             1705.00  1736.96  1775.42  1841.48  1901.84
                             1946.17  2017.57  2052.94  2090.38  2120.33
                             2126.49  2165.83  2259.84  2376.12  2406.59
                             2444.10  4303.45  4418.54  4532.96  4580.34
                             4618.55  4626.10  5547.67  5550.21

 Zero-point correction=                           0.151812 (Hartree/Particle)
 Thermal correction to Energy=                    0.162418
 Thermal correction to Enthalpy=                  0.163362
 Thermal correction to Gibbs Free Energy=         0.115986
 Sum of electronic and zero-point Energies=           -610.245824
 Sum of electronic and thermal Energies=              -610.235217
 Sum of electronic and thermal Enthalpies=            -610.234273
 Sum of electronic and thermal Free Energies=         -610.281650

                     E (Thermal)             CV                S
                      KCal/Mol        Cal/Mol-Kelvin    Cal/Mol-Kelvin
 Total                  101.919             41.581             99.712
 Electronic               0.000              0.000              0.000
 Translational            0.889              2.981             41.265
 Rotational               0.889              2.981             30.640
 Vibrational            100.141             35.619             27.807
 Vibration     1          0.596              1.974              4.494
 Vibration     2          0.606              1.941              3.274
 Vibration     3          0.638              1.838              2.123
 Vibration     4          0.649              1.805              1.929
 Vibration     5          0.660              1.770              1.760
 Vibration     6          0.674              1.729              1.597
 Vibration     7          0.682              1.705              1.516
 Vibration     8          0.721              1.592              1.204
 Vibration     9          0.738              1.546              1.104
 Vibration    10          0.750              1.514              1.040
 Vibration    11          0.750              1.511              1.036
 Vibration    12          0.765              1.472              0.966
 Vibration    13          0.798              1.387              0.832
 Vibration    14          0.883              1.188              0.592
 Vibration    15          0.935              1.077              0.488
 Vibration    16          0.937              1.073              0.484
 Vibration    17          0.974              1.000              0.425

 Optimization completed.
    -- Stationary point found.
 Normal termination of Gaussian 09 at Thu Dec 19 12:14:18 2024.
