 Gaussian 09, Revision E.01,
 Gaussian 09:  ES64L-G09RevE.01 30-Nov-2015

 -----------------------------------------------------
 # opt freq b3pw91/6-31+g(d,p) EmpiricalDispersion=GD3
 -----------------------------------------------------

 ----------
 [No Title]
 ----------
 Symbolic Z-matrix:
 Charge =  1 Multiplicity = 1

 SCF Done:  E(RB3PW91) =  -610.753558781     A.U. after   14 cycles
 SCF Done:  E(RB3PW91) =  -610.753543396     A.U. after   11 cycles
 SCF Done:  E(RB3PW91) =  -610.753569342     A.U. after   11 cycles
 SCF Done:  E(RB3PW91) =  -610.753572011     A.U. after    9 cycles
 Optimization completed.
    -- Stationary point found.
 Normal termination of Gaussian 09 at Thu Dec 19 12:16:19 2024.

 ----------------------------------------------------------------------
 #N Geom=AllCheck Guess=TCheck SCRF=Check GenChk RB3PW91/6-31+G(d,p) Fr
 eq
 ----------------------------------------------------------------------

 Structure from the checkpoint file:  "B3PWD3THAPyang.chk"
 ----------
 [No Title]
 ----------
 Charge =  1 Multiplicity = 1

                         Standard orientation:
 ---------------------------------------------------------------------
 Center     Atomic      Atomic             Coordinates (Angstroms)
 Number     Number       Type             X           Y           Z
 ---------------------------------------------------------------------
      1          6           0        1.548028   -1.262364   -0.000266
      2          6           0        2.282306   -0.073342   -0.000130
      3          6           0        1.632986    1.175375    0.000014
      4          6           0        0.257801    1.210502    0.000061
      5          6           0       -0.557573    0.023943   -0.000013
      6          6           0        0.166045   -1.224038   -0.000231
      7          8           0       -0.552627   -2.352349   -0.000397
      8          6           0       -1.980239    0.082482    0.000208
      9          6           0       -2.903592   -1.080461    0.000257
     10          8           0       -2.626265    1.212859    0.000414
     11          8           0       -0.405924    2.394060    0.000129
     12          8           0        3.606331   -0.196905   -0.000180
     13          1           0        2.084588   -2.205467   -0.000419
     14          1           0        2.207537    2.097328    0.000027
     15          1           0        0.018924   -3.132544   -0.000525
     16          1           0       -2.726124   -1.711638   -0.875114
     17          1           0       -2.725695   -1.711943    0.875316
     18          1           0       -3.930191   -0.714867    0.000562
     19          1           0       -2.019647    1.987303    0.000396
     20          1           0        0.180525    3.162700    0.000710
     21          1           0        4.063388    0.655227   -0.000080
 ---------------------------------------------------------------------

 SCF Done:  E(RB3PW91) =  -610.753572011     A.U. after    1 cycles

 The electronic state is 1-A.
 Alpha  occ. eigenvalues --  -19.38139 -19.37175 -19.35584 -19.35312 -10.46780
 Alpha  occ. eigenvalues --  -10.44711 -10.43906 -10.43622 -10.37623 -10.35496
 Alpha  occ. eigenvalues --  -10.34250 -10.32528  -1.29091  -1.26655  -1.25873
 Alpha  occ. eigenvalues --   -1.25455  -1.03989  -0.97000  -0.93150  -0.91675
 Alpha  occ. eigenvalues --   -0.84127  -0.82360  -0.79897  -0.77017  -0.74530
 Alpha  occ. eigenvalues --   -0.72328  -0.68624  -0.66460  -0.63823  -0.62413
 Alpha  occ. eigenvalues --   -0.61632  -0.61273  -0.60380  -0.58913  -0.57803
 Alpha  occ. eigenvalues --   -0.57235  -0.56088  -0.54159  -0.53985  -0.52364
 Alpha  occ. eigenvalues --   -0.51823  -0.47873  -0.41716  -0.40566
 Alpha virt. eigenvalues --   -0.24808  -0.16723  -0.13951  -0.13789  -0.11863
 Alpha virt. eigenvalues --   -0.11433  -0.09924  -0.07526  -0.06736  -0.06720
 Alpha virt. eigenvalues --   -0.06379  -0.04699  -0.03676  -0.03586  -0.02800

 Mulliken charges:
               1
     1  C    1.282891
     2  C   -1.072638
     3  C    1.044364
     4  C   -1.259944
     5  C    2.495974
     6  C   -2.621482
     7  O   -0.486139
     8  C    0.459798
     9  C   -0.191392
    10  O   -0.358334
    11  O   -0.589477
    12  O   -0.440632
    13  H    0.184117
    14  H    0.161383
    15  H    0.418265
    16  H    0.231101
    17  H    0.231091
    18  H    0.223058
    19  H    0.462940
    20  H    0.434671
    21  H    0.390384
 Sum of Mulliken charges =   1.00000

 Dipole moment (field-independent basis, Debye):
    X=              1.6687    Y=              1.6803    Z=              0.0011  Tot=              2.3681
 Quadrupole moment (field-independent basis, Debye-Ang):
   XX=            -42.1776   YY=            -35.7434   ZZ=            -69.3127
   XY=              8.8350   XZ=             -0.0010   YZ=              0.0067

  Exact polarizability: 162.351   2.184 115.281  -0.007   0.008  54.812
 Approx polarizability: 269.121  -4.043 183.657  -0.011   0.014  81.597

                      1                      2                      3
                      A                      A                      A
 Frequencies --     56.2564                90.0897               194.5290
 Red. masses --      4.7643                 5.1202                 4.7837
 Frc consts  --      0.0089                 0.0245                 0.1067
 IR Inten    --      0.6429                 0.2289                 2.3537

                      4                      5                      6
                      A                      A                      A
 Frequencies --    208.5272               252.8159               268.6128
 Red. masses --      4.8131                 1.1881                 4.8757
 Frc consts  --      0.1233                 0.0447                 0.2073
 IR Inten    --      3.8596                 4.8138                 1.0462

                      7                      8                      9
                      A                      A                      A
 Frequencies --    279.2090               334.8232               350.4955
 Red. masses --      2.3064                 1.2765                 5.4716
 Frc consts  --      0.1059                 0.0843                 0.3960
 IR Inten    --     46.4007                86.5966                12.8454

                     10                     11                     12
                      A                      A                      A
 Frequencies --    374.2951               397.7586               428.6376
 Red. masses --      5.3364                 4.7824                 5.4882
 Frc consts  --      0.4405                 0.4458                 0.5941
 IR Inten    --      5.6592                 5.0344                 4.4974

                     13                     14                     15
                      A                      A                      A
 Frequencies --    452.3194               466.8458               523.9079
 Red. masses --      1.1325                 1.1186                 7.3211
 Frc consts  --      0.1365                 0.1436                 1.1840
 IR Inten    --      9.9601               202.9125                 5.0172

                     16                     17                     18
                      A                      A                      A
 Frequencies --    543.4805               570.0370               610.7257
 Red. masses --      3.9250                 2.7209                 7.9439
 Frc consts  --      0.6831                 0.5209                 1.7457
 IR Inten    --      7.2041                 0.2036                 0.4097

                     19                     20                     21
                      A                      A                      A
 Frequencies --    623.4267               646.2168               650.5248
 Red. masses --      3.3133                 3.4698                 2.9309
 Frc consts  --      0.7587                 0.8537                 0.7308
 IR Inten    --     11.6218                29.8635                23.9326

                     22                     23                     24
                      A                      A                      A
 Frequencies --    718.5461               725.3568               801.2962
 Red. masses --      4.2638                 5.4817                 1.6572
 Frc consts  --      1.2970                 1.6993                 0.6269
 IR Inten    --      4.8188                 2.0586                57.2487

                     25                     26                     27
                      A                      A                      A
 Frequencies --    831.2328               836.1825               990.2641
 Red. masses --      1.2805                 1.4934                 2.0961
 Frc consts  --      0.5213                 0.6152                 1.2110
 IR Inten    --    137.8888                 0.2467                35.4034

                     28                     29                     30
                      A                      A                      A
 Frequencies --   1040.7820              1044.6671              1085.7658
 Red. masses --      3.2897                 1.6775                 2.3578
 Frc consts  --      2.0995                 1.0786                 1.6377
 IR Inten    --      0.7736                 0.4842                67.5146

                     31                     32                     33
                      A                      A                      A
 Frequencies --   1095.5163              1179.1406              1193.4219
 Red. masses --      2.9973                 1.2638                 1.2046
 Frc consts  --      2.1194                 1.0353                 1.0109
 IR Inten    --     77.7105                81.2948                74.7439

                     34                     35                     36
                      A                      A                      A
 Frequencies --   1222.1376              1255.8982              1299.1260
 Red. masses --      1.5391                 2.4769                 1.9728
 Frc consts  --      1.3544                 2.3018                 1.9617
 IR Inten    --    124.3371                61.9014                54.3185

                     37                     38                     39
                      A                      A                      A
 Frequencies --   1320.4548              1389.2820              1400.9574
 Red. masses --      1.9167                 1.1692                 2.8132
 Frc consts  --      1.9690                 1.3296                 3.2531
 IR Inten    --    183.9100                79.8883               223.4301

                     40                     41                     42
                      A                      A                      A
 Frequencies --   1438.8591              1453.0615              1460.6279
 Red. masses --      1.6689                 5.0813                 1.0424
 Frc consts  --      2.0357                 6.3211                 1.3103
 IR Inten    --     17.4589                41.5721                19.6157

                     43                     44                     45
                      A                      A                      A
 Frequencies --   1492.2069              1528.8704              1561.7488
 Red. masses --      2.3482                 2.7788                 4.6508
 Frc consts  --      3.0807                 3.8269                 6.6835
 IR Inten    --    408.2250               265.6354               209.8686

                     46                     47                     48
                      A                      A                      A
 Frequencies --   1586.3952              1622.1645              1700.2650
 Red. masses --      3.6814                 5.8359                 7.0025
 Frc consts  --      5.4586                 9.0480                11.9271
 IR Inten    --    199.9041               226.4227               837.1398

                     49                     50                     51
                      A                      A                      A
 Frequencies --   3076.3860              3150.7335              3197.4005
 Red. masses --      1.0367                 1.0985                 1.1063
 Frc consts  --      5.7808                 6.4253                 6.6637
 IR Inten    --     15.1130                 1.8663                 5.5734

                     52                     53                     54
                      A                      A                      A
 Frequencies --   3204.1724              3226.0943              3485.9919
 Red. masses --      1.0935                 1.0936                 1.0671
 Frc consts  --      6.6148                 6.7063                 7.6405
 IR Inten    --      0.0854                 3.2944               275.4988

                     55                     56                     57
                      A                      A                      A
 Frequencies --   3824.8360              3830.5526              3833.5855
 Red. masses --      1.0667                 1.0670                 1.0671
 Frc consts  --      9.1940                 9.2242                 9.2400
 IR Inten    --    183.9694               103.4553               253.8397

 - Thermochemistry -
 -------------------
 Temperature   298.150 Kelvin.  Pressure   1.00000 Atm.
 Atom     1 has atomic number  6 and mass  12.00000

 Molecular mass:   169.05008 amu.
 Principal axes and moments of inertia in atomic units:
                           1         2         3
     Eigenvalues --  1182.195322373.726153544.89408
           X            0.99943   0.03375   0.00008
           Y           -0.03375   0.99943  -0.00012
           Z           -0.00008   0.00011   1.00000
 This molecule is an asymmetric top.
 Rotational symmetry number  1.
 Warning -- assumption of classical behavior for rotation
           may cause significant error
 Rotational temperatures (Kelvin)      0.07327     0.03649     0.02443
 Rotational constants (GHZ):           1.52660     0.76030     0.50911
 Zero-point vibrational energy     433212.7 (Joules/Mol)
                                  103.54033 (Kcal/Mol)
 Warning -- explicit consideration of  18 degrees of freedom as
           vibrations may cause significant error
 Vibrational temperatures:     80.94   129.62   279.88   300.02   363.75
          (Kelvin)            386.47   401.72   481.74   504.28   538.53
                              572.29   616.71   650.79   671.69   753.79
                              781.95   820.16   878.70   896.97   929.76
                              935.96  1033.83  1043.63  1152.89  1195.96
                             1203.08  1424.77  1497.45  1503.04  1562.17
                             1576.20  1696.52  1717.07  1758.38  1806.96
                             1869.15  1899.84  1998.86  2015.66  2070.19
                             2090.63  2101.52  2146.95  2199.70  2247.01
                             2282.47  2333.93  2446.30  4426.23  4533.20
                             4600.34  4610.08  4641.62  5015.56  5503.08
                             5511.30  5515.67

 Zero-point correction=                           0.165002 (Hartree/Particle)
 Thermal correction to Energy=                    0.175965
 Thermal correction to Enthalpy=                  0.176910
 Thermal correction to Gibbs Free Energy=         0.128807
 Sum of electronic and zero-point Energies=           -610.588570
 Sum of electronic and thermal Energies=              -610.577607
 Sum of electronic and thermal Enthalpies=            -610.576662
 Sum of electronic and thermal Free Energies=         -610.624765

                     E (Thermal)             CV                S
                      KCal/Mol        Cal/Mol-Kelvin    Cal/Mol-Kelvin
 Total                  110.420             43.289            101.240
 Electronic               0.000              0.000              0.000
 Translational            0.889              2.981             41.283
 Rotational               0.889              2.981             30.676
 Vibrational            108.643             37.328             29.281
 Vibration     1          0.596              1.975              4.584
 Vibration     2          0.602              1.956              3.658
 Vibration     3          0.635              1.847              2.184
 Vibration     4          0.642              1.828              2.057
 Vibration     5          0.664              1.758              1.711
 Vibration     6          0.673              1.731              1.605
 Vibration     7          0.680              1.712              1.539
 Vibration     8          0.716              1.606              1.237
 Vibration     9          0.727              1.574              1.164
 Vibration    10          0.745              1.525              1.062
 Vibration    11          0.764              1.475              0.971
 Vibration    12          0.790              1.408              0.863
 Vibration    13          0.811              1.356              0.789
 Vibration    14          0.824              1.324              0.746
 Vibration    15          0.879              1.197              0.601
 Vibration    16          0.899              1.154              0.558
 Vibration    17          0.926              1.096              0.504
 Vibration    18          0.970              1.009              0.432

 Optimization completed.
    -- Stationary point found.
 Normal termination of Gaussian 09 at Thu Dec 19 12:18:24 2024.
