 Gaussian 09, Revision E.01,
 Gaussian 09:  ES64L-G09RevE.01 30-Nov-2015

 --------------------------------------------------------
 # opt freq cam-b3lyp/6-31+g(d,p) empiricaldispersion=gd3
 --------------------------------------------------------

 ----------
 [No Title]
 ----------
 Symbolic Z-matrix:
 Charge =  1 Multiplicity = 1

 SCF Done:  E(RCAM-B3LYP) =  -610.708003050     A.U. after   15 cycles
 SCF Done:  E(RCAM-B3LYP) =  -610.708123896     A.U. after   12 cycles
 SCF Done:  E(RCAM-B3LYP) =  -610.708072388     A.U. after   12 cycles
 SCF Done:  E(RCAM-B3LYP) =  -610.708148823     A.U. after    7 cycles
 SCF Done:  E(RCAM-B3LYP) =  -610.708156756     A.U. after   10 cycles
 SCF Done:  E(RCAM-B3LYP) =  -610.708158725     A.U. after   10 cycles
 SCF Done:  E(RCAM-B3LYP) =  -610.708159031     A.U. after    9 cycles
 Optimization completed.
    -- Stationary point found.
 Normal termination of Gaussian 09 at Tue Dec 17 20:18:44 2024.

 ----------------------------------------------------------------------
 #N Geom=AllCheck Guess=TCheck SCRF=Check GenChk RCAM-B3LYP/6-31+G(d,p)
  Freq
 ----------------------------------------------------------------------

 Structure from the checkpoint file:  "camb3lypD3THAPyang.chk"
 ----------
 [No Title]
 ----------
 Charge =  1 Multiplicity = 1

                         Standard orientation:
 ---------------------------------------------------------------------
 Center     Atomic      Atomic             Coordinates (Angstroms)
 Number     Number       Type             X           Y           Z
 ---------------------------------------------------------------------
      1          6           0        1.542983   -1.262933   -0.000286
      2          6           0        2.275179   -0.076528   -0.000170
      3          6           0        1.630424    1.171371    0.000014
      4          6           0        0.259267    1.207099    0.000102
      5          6           0       -0.555287    0.024389    0.000022
      6          6           0        0.164657   -1.221171   -0.000205
      7          8           0       -0.554854   -2.348135   -0.000339
      8          6           0       -1.975724    0.084286    0.000198
      9          6           0       -2.901417   -1.077345    0.000203
     10          8           0       -2.615837    1.213065    0.000385
     11          8           0       -0.401500    2.391891    0.000246
     12          8           0        3.598188   -0.198194   -0.000263
     13          1           0        2.077644   -2.206067   -0.000453
     14          1           0        2.206446    2.091238    0.000052
     15          1           0        0.010707   -3.133549   -0.000487
     16          1           0       -2.724018   -1.707264   -0.874252
     17          1           0       -2.723682   -1.707553    0.874379
     18          1           0       -3.925153   -0.706883    0.000452
     19          1           0       -2.014924    1.992049    0.000392
     20          1           0        0.182961    3.163010    0.000605
     21          1           0        4.061553    0.651004   -0.000177
 ---------------------------------------------------------------------

 SCF Done:  E(RCAM-B3LYP) =  -610.708159031     A.U. after    1 cycles

 The electronic state is 1-A.
 Alpha  occ. eigenvalues --  -19.46376 -19.45627 -19.43767 -19.43389 -10.55996
 Alpha  occ. eigenvalues --  -10.53573 -10.52772 -10.52493 -10.45878 -10.43839
 Alpha  occ. eigenvalues --  -10.42562 -10.41135  -1.37052  -1.34396  -1.33506
 Alpha  occ. eigenvalues --   -1.32998  -1.12040  -1.04877  -1.00851  -0.99412
 Alpha  occ. eigenvalues --   -0.91372  -0.89643  -0.87249  -0.83875  -0.81561
 Alpha  occ. eigenvalues --   -0.79346  -0.75390  -0.73212  -0.71142  -0.69036
 Alpha  occ. eigenvalues --   -0.68420  -0.67942  -0.67326  -0.65832  -0.64399
 Alpha  occ. eigenvalues --   -0.63937  -0.62555  -0.60540  -0.60415  -0.58693
 Alpha  occ. eigenvalues --   -0.58149  -0.54118  -0.46706  -0.45803
 Alpha virt. eigenvalues --   -0.20273  -0.11786  -0.11471  -0.09453  -0.09216
 Alpha virt. eigenvalues --   -0.08673  -0.07609  -0.05391  -0.05195  -0.04531
 Alpha virt. eigenvalues --   -0.03795  -0.02895  -0.01889  -0.01131  -0.01126

 Mulliken charges:
               1
     1  C    0.915921
     2  C   -0.702899
     3  C    0.614626
     4  C   -0.835103
     5  C    1.975132
     6  C   -2.005475
     7  O   -0.541548
     8  C    0.652315
     9  C   -0.239073
    10  O   -0.392871
    11  O   -0.628874
    12  O   -0.481703
    13  H    0.167577
    14  H    0.144337
    15  H    0.419439
    16  H    0.219959
    17  H    0.219952
    18  H    0.207651
    19  H    0.465143
    20  H    0.434532
    21  H    0.390962
 Sum of Mulliken charges =   1.00000

 Dipole moment (field-independent basis, Debye):
    X=              1.5585    Y=              1.7358    Z=              0.0006  Tot=              2.3328
 Quadrupole moment (field-independent basis, Debye-Ang):
   XX=            -43.6726   YY=            -36.8583   ZZ=            -69.8150
   XY=              8.9439   XZ=             -0.0010   YZ=              0.0054

  Exact polarizability: 158.720   1.721 113.405  -0.009   0.008  55.259
 Approx polarizability: 184.332  -2.136 139.314  -0.008   0.009  71.425

                      1                      2                      3
                      A                      A                      A
 Frequencies --     60.7727                95.1019               197.6398
 Red. masses --      4.5850                 5.2381                 4.4809
 Frc consts  --      0.0100                 0.0279                 0.1031
 IR Inten    --      0.4178                 0.0771                 2.9051

                      4                      5                      6
                      A                      A                      A
 Frequencies --    215.7025               250.6437               273.2790
 Red. masses --      4.5763                 1.1876                 4.8294
 Frc consts  --      0.1255                 0.0440                 0.2125
 IR Inten    --      2.9345                 2.2967                 1.4123

                      7                      8                      9
                      A                      A                      A
 Frequencies --    285.1851               353.8344               354.9455
 Red. masses --      2.8487                 5.4963                 1.1978
 Frc consts  --      0.1365                 0.4054                 0.0889
 IR Inten    --     33.9012                13.3803               102.6758

                     10                     11                     12
                      A                      A                      A
 Frequencies --    378.4933               403.8850               432.4678
 Red. masses --      5.1243                 4.9321                 5.5232
 Frc consts  --      0.4325                 0.4740                 0.6086
 IR Inten    --      6.0632                 5.7316                 5.2182

                     13                     14                     15
                      A                      A                      A
 Frequencies --    456.7293               475.1319               531.8607
 Red. masses --      1.1252                 1.1195                 7.1489
 Frc consts  --      0.1383                 0.1489                 1.1915
 IR Inten    --     42.7568               182.0070                 5.4330

                     16                     17                     18
                      A                      A                      A
 Frequencies --    550.7033               581.1886               617.1365
 Red. masses --      3.9487                 2.6612                 7.9001
 Frc consts  --      0.7056                 0.5296                 1.7727
 IR Inten    --      8.8463                 0.2515                 0.3337

                     19                     20                     21
                      A                      A                      A
 Frequencies --    636.1381               652.6925               662.7221
 Red. masses --      3.3205                 3.4510                 2.8148
 Frc consts  --      0.7917                 0.8662                 0.7284
 IR Inten    --     10.0803                30.1272                23.5489

                     22                     23                     24
                      A                      A                      A
 Frequencies --    726.3907               744.6581               825.1994
 Red. masses --      4.2465                 4.8598                 1.7013
 Frc consts  --      1.3202                 1.5878                 0.6826
 IR Inten    --      4.8635                 3.7799                45.4865

                     25                     26                     27
                      A                      A                      A
 Frequencies --    849.3443               856.4734               997.2098
 Red. masses --      1.2690                 1.5692                 2.1295
 Frc consts  --      0.5394                 0.6782                 1.2477
 IR Inten    --    150.0729                11.4320                37.8050

                     28                     29                     30
                      A                      A                      A
 Frequencies --   1049.6310              1062.2090              1097.8521
 Red. masses --      3.2440                 1.6947                 2.3753
 Frc consts  --      2.1057                 1.1266                 1.6868
 IR Inten    --      2.6144                 0.9320                81.7073

                     31                     32                     33
                      A                      A                      A
 Frequencies --   1107.7207              1183.7245              1197.1630
 Red. masses --      2.8214                 1.2570                 1.2136
 Frc consts  --      2.0397                 1.0377                 1.0248
 IR Inten    --     80.6696               108.2965                45.5633

                     34                     35                     36
                      A                      A                      A
 Frequencies --   1225.2539              1263.1041              1309.3734
 Red. masses --      1.5344                 2.5396                 1.9342
 Frc consts  --      1.3571                 2.3872                 1.9538
 IR Inten    --    117.2387                62.9625                72.1201

                     37                     38                     39
                      A                      A                      A
 Frequencies --   1327.2547              1405.0013              1408.5281
 Red. masses --      1.9877                 3.1106                 1.1868
 Frc consts  --      2.0630                 3.6178                 1.3873
 IR Inten    --    184.1693               355.7970                32.3613

                     40                     41                     42
                      A                      A                      A
 Frequencies --   1441.7349              1455.2370              1474.7747
 Red. masses --      2.3852                 2.4135                 1.0431
 Frc consts  --      2.9211                 3.0114                 1.3367
 IR Inten    --     44.1106                66.6545                19.4701

                     43                     44                     45
                      A                      A                      A
 Frequencies --   1501.5188              1541.7130              1578.4820
 Red. masses --      2.1818                 2.8218                 4.8129
 Frc consts  --      2.8982                 3.9518                 7.0654
 IR Inten    --    431.0836               325.2782               239.7569

                     46                     47                     48
                      A                      A                      A
 Frequencies --   1600.1808              1643.5697              1717.1468
 Red. masses --      3.7386                 6.0633                 7.0571
 Frc consts  --      5.6402                 9.6501                12.2601
 IR Inten    --    199.7433               241.4207               921.2274

                     49                     50                     51
                      A                      A                      A
 Frequencies --   3095.5605              3167.6019              3209.1088
 Red. masses --      1.0364                 1.0994                 1.1075
 Frc consts  --      5.8513                 6.4995                 6.7198
 IR Inten    --     14.0222                 2.0449                 5.0941

                     52                     53                     54
                      A                      A                      A
 Frequencies --   3215.6757              3237.0164              3500.0838
 Red. masses --      1.0941                 1.0943                 1.0670
 Frc consts  --      6.6658                 6.7555                 7.7016
 IR Inten    --      0.3035                 4.2093               309.4933

                     55                     56                     57
                      A                      A                      A
 Frequencies --   3829.4813              3835.9723              3838.7446
 Red. masses --      1.0667                 1.0671                 1.0671
 Frc consts  --      9.2168                 9.2513                 9.2647
 IR Inten    --    200.3842                76.1191               308.0063

 - Thermochemistry -
 -------------------
 Temperature   298.150 Kelvin.  Pressure   1.00000 Atm.
 Atom     1 has atomic number  6 and mass  12.00000

 Molecular mass:   169.05008 amu.
 Principal axes and moments of inertia in atomic units:
                           1         2         3
     Eigenvalues --  1179.120682362.888853531.00479
           X            0.99943   0.03381   0.00008
           Y           -0.03381   0.99943  -0.00012
           Z           -0.00009   0.00012   1.00000
 This molecule is an asymmetric top.
 Rotational symmetry number  1.
 Warning -- assumption of classical behavior for rotation
           may cause significant error
 Rotational temperatures (Kelvin)      0.07346     0.03666     0.02453
 Rotational constants (GHZ):           1.53058     0.76379     0.51111
 Zero-point vibrational energy     436552.9 (Joules/Mol)
                                  104.33865 (Kcal/Mol)
 Warning -- explicit consideration of  18 degrees of freedom as
           vibrations may cause significant error
 Vibrational temperatures:     87.44   136.83   284.36   310.35   360.62
          (Kelvin)            393.19   410.32   509.09   510.69   544.57
                              581.10   622.22   657.13   683.61   765.23
                              792.34   836.20   887.92   915.26   939.08
                              953.51  1045.11  1071.40  1187.28  1222.02
                             1232.27  1434.76  1510.18  1528.28  1579.56
                             1593.76  1703.11  1722.45  1762.86  1817.32
                             1883.89  1909.62  2021.48  2026.56  2074.33
                             2093.76  2121.87  2160.35  2218.18  2271.08
                             2302.30  2364.73  2470.59  4453.82  4557.47
                             4617.19  4626.63  4657.34  5035.83  5509.76
                             5519.10  5523.09

 Zero-point correction=                           0.166274 (Hartree/Particle)
 Thermal correction to Energy=                    0.177069
 Thermal correction to Enthalpy=                  0.178014
 Thermal correction to Gibbs Free Energy=         0.130300
 Sum of electronic and zero-point Energies=           -610.541885
 Sum of electronic and thermal Energies=              -610.531090
 Sum of electronic and thermal Enthalpies=            -610.530146
 Sum of electronic and thermal Free Energies=         -610.577859

                     E (Thermal)             CV                S
                      KCal/Mol        Cal/Mol-Kelvin    Cal/Mol-Kelvin
 Total                  111.113             42.760            100.422
 Electronic               0.000              0.000              0.000
 Translational            0.889              2.981             41.283
 Rotational               0.889              2.981             30.665
 Vibrational            109.335             36.799             28.474
 Vibration     1          0.597              1.973              4.432
 Vibration     2          0.603              1.953              3.552
 Vibration     3          0.637              1.843              2.155
 Vibration     4          0.645              1.817              1.995
 Vibration     5          0.663              1.762              1.726
 Vibration     6          0.676              1.723              1.575
 Vibration     7          0.683              1.701              1.502
 Vibration     8          0.730              1.567              1.149
 Vibration     9          0.731              1.565              1.144
 Vibration    10          0.749              1.516              1.045
 Vibration    11          0.769              1.462              0.948
 Vibration    12          0.793              1.399              0.851
 Vibration    13          0.815              1.346              0.776
 Vibration    14          0.832              1.305              0.723
 Vibration    15          0.887              1.180              0.583
 Vibration    16          0.906              1.138              0.543
 Vibration    17          0.938              1.072              0.483
 Vibration    18          0.977              0.996              0.421

 Optimization completed.
    -- Stationary point found.
 Normal termination of Gaussian 09 at Tue Dec 17 20:20:25 2024.
