 Gaussian 09, Revision E.01,
 Gaussian 09:  ES64L-G09RevE.01 30-Nov-2015

 --------------------------------------------------------
 # opt freq cam-b3lyp/6-31+g(d,p) empiricaldispersion=gd3
 --------------------------------------------------------

 ----------
 [No Title]
 ----------
 Symbolic Z-matrix:
 Charge =  0 Multiplicity = 1

 SCF Done:  E(RCAM-B3LYP) =  -610.357058145     A.U. after   15 cycles
 SCF Done:  E(RCAM-B3LYP) =  -610.357080911     A.U. after   13 cycles
 SCF Done:  E(RCAM-B3LYP) =  -610.357194738     A.U. after   13 cycles
 SCF Done:  E(RCAM-B3LYP) =  -610.357314474     A.U. after   12 cycles
 SCF Done:  E(RCAM-B3LYP) =  -610.357324142     A.U. after   11 cycles
 SCF Done:  E(RCAM-B3LYP) =  -610.357324774     A.U. after   10 cycles
 SCF Done:  E(RCAM-B3LYP) =  -610.357324084     A.U. after   11 cycles
 SCF Done:  E(RCAM-B3LYP) =  -610.357325138     A.U. after   10 cycles
 SCF Done:  E(RCAM-B3LYP) =  -610.357325272     A.U. after    9 cycles
 Optimization completed.
    -- Stationary point found.
 Normal termination of Gaussian 09 at Tue Dec 17 20:04:55 2024.

 ----------------------------------------------------------------------
 #N Geom=AllCheck Guess=TCheck SCRF=Check GenChk RCAM-B3LYP/6-31+G(d,p)
  Freq
 ----------------------------------------------------------------------

 Structure from the checkpoint file:  "camb3lypD3THAP.chk"
 ----------
 [No Title]
 ----------
 Charge =  0 Multiplicity = 1

                         Standard orientation:
 ---------------------------------------------------------------------
 Center     Atomic      Atomic             Coordinates (Angstroms)
 Number     Number       Type             X           Y           Z
 ---------------------------------------------------------------------
      1          6           0       -1.521302    1.247686    0.000068
      2          6           0       -2.253686    0.058386    0.000032
      3          6           0       -1.622543   -1.173175   -0.000024
      4          6           0       -0.228423   -1.225667   -0.000047
      5          6           0        0.564826   -0.038384   -0.000027
      6          6           0       -0.139968    1.191486    0.000042
      7          8           0        0.579953    2.345042    0.000070
      8          6           0        2.024815   -0.168457   -0.000083
      9          6           0        2.947954    1.018812    0.000032
     10          8           0        2.543632   -1.297994   -0.000106
     11          8           0        0.329416   -2.432494   -0.000067
     12          8           0       -3.602764    0.183084    0.000061
     13          1           0       -2.048871    2.195316    0.000114
     14          1           0       -2.175714   -2.105858   -0.000042
     15          1           0       -0.018710    3.101564    0.000115
     16          1           0        2.770735    1.647578    0.874973
     17          1           0        3.971297    0.644622    0.000007
     18          1           0        2.770745    1.647729   -0.874803
     19          1           0        1.320036   -2.289751   -0.000029
     20          1           0       -4.021451   -0.686425    0.000034
 ---------------------------------------------------------------------

 SCF Done:  E(RCAM-B3LYP) =  -610.357325272     A.U. after    1 cycles

 The electronic state is 1-A.
 Alpha  occ. eigenvalues --  -19.28752 -19.28427 -19.24888 -19.22971 -10.37170
 Alpha  occ. eigenvalues --  -10.36334 -10.35866 -10.35492 -10.28232 -10.27324
 Alpha  occ. eigenvalues --  -10.26797 -10.26198  -1.17938  -1.17385  -1.16183
 Alpha  occ. eigenvalues --   -1.12533  -0.95177  -0.86852  -0.84140  -0.81984
 Alpha  occ. eigenvalues --   -0.74112  -0.72181  -0.67848  -0.65790  -0.60135
 Alpha  occ. eigenvalues --   -0.59526  -0.58182  -0.55681  -0.53946  -0.51974
 Alpha  occ. eigenvalues --   -0.50880  -0.50762  -0.49035  -0.48650  -0.48616
 Alpha  occ. eigenvalues --   -0.47573  -0.45439  -0.43812  -0.43641  -0.43011
 Alpha  occ. eigenvalues --   -0.37326  -0.33369  -0.30093  -0.28892
 Alpha virt. eigenvalues --   -0.01386   0.01452   0.02207   0.03801   0.04468
 Alpha virt. eigenvalues --    0.05957   0.06434   0.06964   0.07342   0.07474
 Alpha virt. eigenvalues --    0.08715   0.09020   0.10455   0.10829   0.11516

 Mulliken charges:
               1
     1  C    0.797000
     2  C   -0.528618
     3  C    0.790513
     4  C   -1.038890
     5  C    1.938687
     6  C   -1.937500
     7  O   -0.568547
     8  C    0.678897
     9  C   -0.513485
    10  O   -0.510130
    11  O   -0.567181
    12  O   -0.539730
    13  H    0.124563
    14  H    0.130896
    15  H    0.389842
    16  H    0.183373
    17  H    0.175061
    18  H    0.183371
    19  H    0.442220
    20  H    0.369661
 Sum of Mulliken charges =   0.00000

 Dipole moment (field-independent basis, Debye):
    X=             -2.2811    Y=              3.1356    Z=              0.0003  Tot=              3.8776
 Quadrupole moment (field-independent basis, Debye-Ang):
   XX=            -67.5715   YY=            -66.3840   ZZ=            -72.0019
   XY=              8.9500   XZ=              0.0005   YZ=             -0.0000

  Exact polarizability: 148.507  -2.396 119.677  -0.001   0.002  60.388
 Approx polarizability: 165.283  -9.371 152.129  -0.002   0.003  77.205

                      1                      2                      3
                      A                      A                      A
 Frequencies --     59.6384               108.4446               204.5277
 Red. masses --      3.8005                10.1795                 4.2880
 Frc consts  --      0.0080                 0.0705                 0.1057
 IR Inten    --      1.1858                 0.2561                 3.9031

                      4                      5                      6
                      A                      A                      A
 Frequencies --    229.4721               247.6219               272.5822
 Red. masses --      4.5063                 1.1601                 4.7160
 Frc consts  --      0.1398                 0.0419                 0.2065
 IR Inten    --      1.2159                 0.0338                12.2768

                      7                      8                      9
                      A                      A                      A
 Frequencies --    289.7973               344.3928               367.5734
 Red. masses --      4.1941                 5.8047                 5.4510
 Frc consts  --      0.2075                 0.4056                 0.4339
 IR Inten    --      2.2367                 8.3050                 4.3776

                     10                     11                     12
                      A                      A                      A
 Frequencies --    383.7740               387.6827               400.2557
 Red. masses --      4.7261                 1.1697                 1.1194
 Frc consts  --      0.4101                 0.1036                 0.1057
 IR Inten    --      6.1809                 3.1448               209.2371

                     13                     14                     15
                      A                      A                      A
 Frequencies --    439.0854               536.8571               584.5548
 Red. masses --      6.3026                 6.8738                 5.9354
 Frc consts  --      0.7159                 1.1673                 1.1949
 IR Inten    --      4.0284                 9.6728                22.1748

                     16                     17                     18
                      A                      A                      A
 Frequencies --    589.7247               620.4367               638.1219
 Red. masses --      2.9070                 7.3864                 3.1426
 Frc consts  --      0.5957                 1.6752                 0.7540
 IR Inten    --      0.3139                 5.7663                 1.1950

                     19                     20                     21
                      A                      A                      A
 Frequencies --    653.2809               654.1713               724.7550
 Red. masses --      4.0295                 2.6698                 4.0064
 Frc consts  --      1.0132                 0.6731                 1.2399
 IR Inten    --     16.6977                13.9466                14.6365

                     22                     23                     24
                      A                      A                      A
 Frequencies --    745.5954               817.2383               830.3564
 Red. masses --      4.8397                 1.7712                 1.7251
 Frc consts  --      1.5852                 0.6970                 0.7008
 IR Inten    --      0.3363                41.8362                54.5598

                     25                     26                     27
                      A                      A                      A
 Frequencies --    950.8358               991.7539              1048.1954
 Red. masses --      1.0631                 2.1689                 3.2891
 Frc consts  --      0.5663                 1.2569                 2.1292
 IR Inten    --     87.8985                40.1273                10.9896

                     28                     29                     30
                      A                      A                      A
 Frequencies --   1059.7726              1102.7593              1113.6622
 Red. masses --      1.8160                 2.4763                 4.1607
 Frc consts  --      1.2017                 1.7742                 3.0404
 IR Inten    --      3.7620                49.4753                70.6740

                     31                     32                     33
                      A                      A                      A
 Frequencies --   1187.7225              1212.9679              1239.6640
 Red. masses --      1.2772                 1.3768                 2.1504
 Frc consts  --      1.0616                 1.1935                 1.9471
 IR Inten    --    132.5573                20.8741               208.1125

                     34                     35                     36
                      A                      A                      A
 Frequencies --   1286.5672              1325.1797              1358.1825
 Red. masses --      1.6456                 3.1497                 3.1330
 Frc consts  --      1.6048                 3.2588                 3.4051
 IR Inten    --    240.9013               117.0913               151.0470

                     37                     38                     39
                      A                      A                      A
 Frequencies --   1415.1414              1424.7195              1466.0257
 Red. masses --      2.3272                 1.7960                 1.3031
 Frc consts  --      2.7459                 2.1479                 1.6501
 IR Inten    --     46.6611                51.4778                44.6146

                     40                     41                     42
                      A                      A                      A
 Frequencies --   1482.7871              1487.0729              1519.2450
 Red. masses --      2.4432                 1.0455                 3.7953
 Frc consts  --      3.1650                 1.3622                 5.1612
 IR Inten    --      6.9492                13.0730               214.5667

                     43                     44                     45
                      A                      A                      A
 Frequencies --   1583.5494              1672.1569              1703.7359
 Red. masses --      2.7479                 4.6792                 8.8914
 Frc consts  --      4.0599                 7.7087                15.2064
 IR Inten    --     76.7562               149.3200               326.2292

                     46                     47                     48
                      A                      A                      A
 Frequencies --   1719.1254              3090.7536              3141.9844
 Red. masses --      5.3714                 1.0353                 1.0718
 Frc consts  --      9.3530                 5.8272                 6.2343
 IR Inten    --    774.2584                 2.0845               515.8429

                     49                     50                     51
                      A                      A                      A
 Frequencies --   3166.8455              3194.7162              3223.1788
 Red. masses --      1.1001                 1.1071                 1.0928
 Frc consts  --      6.5004                 6.6572                 6.6888
 IR Inten    --      2.6364                15.4109                 1.9439

                     52                     53                     54
                      A                      A                      A
 Frequencies --   3227.6059              3865.0252              3866.3769
 Red. masses --      1.0929                 1.0663                 1.0663
 Frc consts  --      6.7081                 9.3847                 9.3915
 IR Inten    --      3.0350               110.5962                79.0402

 - Thermochemistry -
 -------------------
 Temperature   298.150 Kelvin.  Pressure   1.00000 Atm.
 Atom     1 has atomic number  6 and mass  12.00000

 Molecular mass:   168.04226 amu.
 Principal axes and moments of inertia in atomic units:
                           1         2         3
     Eigenvalues --  1160.314572346.278103495.57353
           X            0.99941   0.03438   0.00001
           Y           -0.03438   0.99941  -0.00004
           Z           -0.00002   0.00004   1.00000
 This molecule is an asymmetric top.
 Rotational symmetry number  1.
 Warning -- assumption of classical behavior for rotation
           may cause significant error
 Rotational temperatures (Kelvin)      0.07465     0.03692     0.02478
 Rotational constants (GHZ):           1.55539     0.76919     0.51629
 Zero-point vibrational energy     402287.7 (Joules/Mol)
                                   96.14906 (Kcal/Mol)
 Warning -- explicit consideration of  17 degrees of freedom as
           vibrations may cause significant error
 Vibrational temperatures:     85.81   156.03   294.27   330.16   356.27
          (Kelvin)            392.18   416.95   495.50   528.86   552.16
                              557.79   575.88   631.75   772.42   841.04
                              848.48   892.67   918.11   939.92   941.21
                             1042.76  1072.74  1175.82  1194.70  1368.04
                             1426.91  1508.12  1524.77  1586.62  1602.31
                             1708.87  1745.19  1783.60  1851.08  1906.64
                             1954.12  2036.07  2049.85  2109.28  2133.40
                             2139.56  2185.85  2278.37  2405.86  2451.29
                             2473.43  4446.90  4520.61  4556.38  4596.48
                             4637.43  4643.80  5560.90  5562.85

 Zero-point correction=                           0.153223 (Hartree/Particle)
 Thermal correction to Energy=                    0.163720
 Thermal correction to Enthalpy=                  0.164664
 Thermal correction to Gibbs Free Energy=         0.117487
 Sum of electronic and zero-point Energies=           -610.204102
 Sum of electronic and thermal Energies=              -610.193606
 Sum of electronic and thermal Enthalpies=            -610.192662
 Sum of electronic and thermal Free Energies=         -610.239839

                     E (Thermal)             CV                S
                      KCal/Mol        Cal/Mol-Kelvin    Cal/Mol-Kelvin
 Total                  102.736             41.182             99.292
 Electronic               0.000              0.000              0.000
 Translational            0.889              2.981             41.265
 Rotational               0.889              2.981             30.632
 Vibrational            100.958             35.221             27.395
 Vibration     1          0.597              1.974              4.469
 Vibration     2          0.606              1.942              3.297
 Vibration     3          0.640              1.833              2.092
 Vibration     4          0.652              1.796              1.883
 Vibration     5          0.661              1.767              1.747
 Vibration     6          0.676              1.724              1.580
 Vibration     7          0.686              1.693              1.475
 Vibration     8          0.723              1.587              1.192
 Vibration     9          0.740              1.539              1.090
 Vibration    10          0.753              1.505              1.024
 Vibration    11          0.756              1.496              1.009
 Vibration    12          0.766              1.470              0.962
 Vibration    13          0.799              1.385              0.829
 Vibration    14          0.892              1.169              0.572
 Vibration    15          0.942              1.065              0.477
 Vibration    16          0.947              1.054              0.468
 Vibration    17          0.980              0.989              0.416

 Optimization completed.
    -- Stationary point found.
 Normal termination of Gaussian 09 at Tue Dec 17 20:06:35 2024.
