 Gaussian 09, Revision E.01,
 Gaussian 09:  ES64L-G09RevE.01 30-Nov-2015

 -----------------------------------------------------
 # opt freq pbepbe/6-31+g(d,p) empiricaldispersion=gd3
 -----------------------------------------------------

 ----------
 [No Title]
 ----------
 Symbolic Z-matrix:
 Charge =  1 Multiplicity = 1

 SCF Done:  E(RPBE-PBE) =  -610.286310170     A.U. after   17 cycles
 SCF Done:  E(RPBE-PBE) =  -610.287911720     A.U. after   13 cycles
 SCF Done:  E(RPBE-PBE) =  -610.287680819     A.U. after   13 cycles
 SCF Done:  E(RPBE-PBE) =  -610.288001522     A.U. after    9 cycles
 SCF Done:  E(RPBE-PBE) =  -610.288031002     A.U. after   12 cycles
 SCF Done:  E(RPBE-PBE) =  -610.288038354     A.U. after   11 cycles
 SCF Done:  E(RPBE-PBE) =  -610.288039385     A.U. after   10 cycles
 Optimization completed.
    -- Stationary point found.
 Normal termination of Gaussian 09 at Tue Dec 17 20:22:31 2024.

 ----------------------------------------------------------------------
 #N Geom=AllCheck Guess=TCheck SCRF=Check GenChk RPBEPBE/6-31+G(d,p) Fr
 eq
 ----------------------------------------------------------------------

 Structure from the checkpoint file:  "pbeD3THAPyang.chk"
 ----------
 [No Title]
 ----------
 Charge =  1 Multiplicity = 1

                         Standard orientation:
 ---------------------------------------------------------------------
 Center     Atomic      Atomic             Coordinates (Angstroms)
 Number     Number       Type             X           Y           Z
 ---------------------------------------------------------------------
      1          6           0        1.560426   -1.268166   -0.000282
      2          6           0        2.297690   -0.070912   -0.000151
      3          6           0        1.642192    1.183755    0.000015
      4          6           0        0.257916    1.215771    0.000077
      5          6           0       -0.562369    0.022459    0.000002
      6          6           0        0.169538   -1.231140   -0.000225
      7          8           0       -0.556845   -2.369442   -0.000376
      8          6           0       -1.992140    0.078487    0.000211
      9          6           0       -2.919498   -1.087574    0.000224
     10          8           0       -2.645933    1.222031    0.000433
     11          8           0       -0.416508    2.407930    0.000179
     12          8           0        3.634266   -0.195530   -0.000219
     13          1           0        2.101583   -2.218176   -0.000443
     14          1           0        2.218654    2.114340    0.000049
     15          1           0        0.033496   -3.149265   -0.000513
     16          1           0       -2.744077   -1.727321   -0.879910
     17          1           0       -2.743695   -1.727632    0.880051
     18          1           0       -3.953451   -0.719093    0.000503
     19          1           0       -2.019300    1.997083    0.000431
     20          1           0        0.181680    3.180652    0.000596
     21          1           0        4.082751    0.673413   -0.000121
 ---------------------------------------------------------------------

 SCF Done:  E(RPBE-PBE) =  -610.288039385     A.U. after    1 cycles

 The electronic state is 1-A.
 Alpha  occ. eigenvalues --  -19.01505 -19.00137 -18.98989 -18.98817 -10.18165
 Alpha  occ. eigenvalues --  -10.16604 -10.15795 -10.15542 -10.10211 -10.08191
 Alpha  occ. eigenvalues --  -10.06997 -10.05128  -1.18629  -1.16375  -1.15790
 Alpha  occ. eigenvalues --   -1.15462  -0.95294  -0.88751  -0.85233  -0.83811
 Alpha  occ. eigenvalues --   -0.77103  -0.75327  -0.72852  -0.70529  -0.68158
 Alpha  occ. eigenvalues --   -0.66019  -0.62640  -0.60586  -0.57896  -0.56907
 Alpha  occ. eigenvalues --   -0.55714  -0.55654  -0.54689  -0.53100  -0.52323
 Alpha  occ. eigenvalues --   -0.51576  -0.50953  -0.48991  -0.48778  -0.47289
 Alpha  occ. eigenvalues --   -0.46667  -0.43201  -0.38366  -0.37169
 Alpha virt. eigenvalues --   -0.26999  -0.19655  -0.17217  -0.16859  -0.14898
 Alpha virt. eigenvalues --   -0.14438  -0.12784  -0.10398  -0.09649  -0.09275
 Alpha virt. eigenvalues --   -0.08915  -0.07096  -0.06343  -0.06198  -0.05490

 Mulliken charges:
               1
     1  C    1.171999
     2  C   -0.995499
     3  C    0.906372
     4  C   -1.192174
     5  C    2.518779
     6  C   -2.611771
     7  O   -0.462037
     8  C    0.606308
     9  C   -0.330661
    10  O   -0.325543
    11  O   -0.557310
    12  O   -0.410945
    13  H    0.172200
    14  H    0.150204
    15  H    0.408965
    16  H    0.236282
    17  H    0.236274
    18  H    0.222764
    19  H    0.447845
    20  H    0.426203
    21  H    0.381748
 Sum of Mulliken charges =   1.00000

 Dipole moment (field-independent basis, Debye):
    X=              1.8074    Y=              1.6381    Z=              0.0007  Tot=              2.4393
 Quadrupole moment (field-independent basis, Debye-Ang):
   XX=            -42.2076   YY=            -35.9818   ZZ=            -69.9156
   XY=              8.8207   XZ=             -0.0011   YZ=              0.0058

  Exact polarizability: 173.002   2.803 122.629  -0.008   0.009  57.076
 Approx polarizability: 395.613  -7.570 246.954  -0.021   0.021  95.608

                      1                      2                      3
                      A                      A                      A
 Frequencies --     54.3088                88.7398               187.4868
 Red. masses --      5.0805                 4.8281                 4.4066
 Frc consts  --      0.0088                 0.0224                 0.0913
 IR Inten    --      0.7932                 0.3167                 1.9366

                      4                      5                      6
                      A                      A                      A
 Frequencies --    199.4259               234.7847               258.6199
 Red. masses --      4.5912                 1.1786                 4.7898
 Frc consts  --      0.1076                 0.0383                 0.1888
 IR Inten    --      5.4909                 1.4751                 0.9668

                      7                      8                      9
                      A                      A                      A
 Frequencies --    269.5551               326.7317               339.6740
 Red. masses --      2.5726                 1.2676                 5.5281
 Frc consts  --      0.1101                 0.0797                 0.3758
 IR Inten    --     46.6910                83.6907                11.7977

                     10                     11                     12
                      A                      A                      A
 Frequencies --    361.8694               386.6908               415.5900
 Red. masses --      5.0730                 4.8123                 5.6441
 Frc consts  --      0.3914                 0.4240                 0.5744
 IR Inten    --      4.1056                 5.5073                 4.0203

                     13                     14                     15
                      A                      A                      A
 Frequencies --    450.0979               469.6938               508.4369
 Red. masses --      1.1350                 1.1204                 7.1532
 Frc consts  --      0.1355                 0.1456                 1.0895
 IR Inten    --     25.7188               165.5574                 3.8026

                     16                     17                     18
                      A                      A                      A
 Frequencies --    526.6358               547.1406               591.9931
 Red. masses --      3.9681                 2.8248                 8.0097
 Frc consts  --      0.6484                 0.4982                 1.6539
 IR Inten    --      6.4251                 0.1689                 0.4462

                     19                     20                     21
                      A                      A                      A
 Frequencies --    598.5978               624.3074               624.4241
 Red. masses --      3.3003                 3.4683                 2.9498
 Frc consts  --      0.6967                 0.7965                 0.6777
 IR Inten    --     12.4462                29.3527                27.7865

                     22                     23                     24
                      A                      A                      A
 Frequencies --    696.8924               701.4432               765.0323
 Red. masses --      4.2153                 5.5864                 1.6435
 Frc consts  --      1.2062                 1.6194                 0.5667
 IR Inten    --      4.7293                 2.9439                49.1143

                     25                     26                     27
                      A                      A                      A
 Frequencies --    801.0277               808.1684               960.6625
 Red. masses --      1.5212                 1.2418                 2.0066
 Frc consts  --      0.5751                 0.4779                 1.0911
 IR Inten    --     58.1153                60.3520                34.9323

                     28                     29                     30
                      A                      A                      A
 Frequencies --   1008.4419              1009.0365              1049.4556
 Red. masses --      1.6506                 3.3015                 2.9742
 Frc consts  --      0.9890                 1.9805                 1.9300
 IR Inten    --      0.1364                 0.0385                82.5734

                     31                     32                     33
                      A                      A                      A
 Frequencies --   1059.5038              1145.4719              1159.2547
 Red. masses --      2.6557                 1.2869                 1.2024
 Frc consts  --      1.7564                 0.9948                 0.9521
 IR Inten    --     48.9734                72.6886                96.8072

                     34                     35                     36
                      A                      A                      A
 Frequencies --   1188.5993              1211.8863              1253.1877
 Red. masses --      1.5920                 2.2366                 2.0043
 Frc consts  --      1.3252                 1.9353                 1.8546
 IR Inten    --    120.2600                37.0018                69.7283

                     37                     38                     39
                      A                      A                      A
 Frequencies --   1289.5945              1343.7336              1353.4781
 Red. masses --      1.9687                 1.1867                 2.6659
 Frc consts  --      1.9290                 1.2625                 2.8774
 IR Inten    --    160.9381                71.8918               165.6108

                     40                     41                     42
                      A                      A                      A
 Frequencies --   1391.3234              1411.1849              1418.9679
 Red. masses --      1.7526                 1.0427                 4.2917
 Frc consts  --      1.9989                 1.2234                 5.0913
 IR Inten    --      6.7533                19.3872                17.7546

                     43                     44                     45
                      A                      A                      A
 Frequencies --   1449.6907              1478.1600              1505.3527
 Red. masses --      2.5223                 2.5932                 4.8752
 Frc consts  --      3.1232                 3.3383                 6.5090
 IR Inten    --    289.8726               229.2631               193.5167

                     46                     47                     48
                      A                      A                      A
 Frequencies --   1537.6626              1569.1881              1646.7431
 Red. masses --      3.3784                 5.6535                 7.1714
 Frc consts  --      4.7063                 8.2019                11.4580
 IR Inten    --    212.0657               177.3679               716.8534

                     49                     50                     51
                      A                      A                      A
 Frequencies --   3002.2698              3069.4887              3121.1358
 Red. masses --      1.0371                 1.0975                 1.1051
 Frc consts  --      5.5077                 6.0926                 6.3427
 IR Inten    --     17.7965                 1.9093                 5.6269

                     52                     53                     54
                      A                      A                      A
 Frequencies --   3123.8765              3145.1579              3310.6609
 Red. masses --      1.0927                 1.0928                 1.0672
 Frc consts  --      6.2824                 6.3690                 6.8916
 IR Inten    --      0.0807                 3.1047               246.7755

                     55                     56                     57
                      A                      A                      A
 Frequencies --   3679.0360              3685.4903              3692.5955
 Red. masses --      1.0664                 1.0667                 1.0669
 Frc consts  --      8.5039                 8.5367                 8.5712
 IR Inten    --    148.4323               142.4345               170.4137

 - Thermochemistry -
 -------------------
 Temperature   298.150 Kelvin.  Pressure   1.00000 Atm.
 Atom     1 has atomic number  6 and mass  12.00000

 Molecular mass:   169.05008 amu.
 Principal axes and moments of inertia in atomic units:
                           1         2         3
     Eigenvalues --  1197.157912406.664803592.67490
           X            0.99943   0.03385   0.00008
           Y           -0.03385   0.99943  -0.00012
           Z           -0.00008   0.00012   1.00000
 This molecule is an asymmetric top.
 Rotational symmetry number  1.
 Warning -- assumption of classical behavior for rotation
           may cause significant error
 Rotational temperatures (Kelvin)      0.07235     0.03599     0.02411
 Rotational constants (GHZ):           1.50752     0.74989     0.50234
 Zero-point vibrational energy     419336.9 (Joules/Mol)
                                  100.22393 (Kcal/Mol)
 Warning -- explicit consideration of  19 degrees of freedom as
           vibrations may cause significant error
 Vibrational temperatures:     78.14   127.68   269.75   286.93   337.80
          (Kelvin)            372.10   387.83   470.09   488.71   520.65
                              556.36   597.94   647.59   675.78   731.53
                              757.71   787.21   851.75   861.25   898.24
                              898.41  1002.67  1009.22  1100.71  1152.50
                             1162.77  1382.18  1450.92  1451.78  1509.93
                             1524.39  1648.08  1667.91  1710.13  1743.63
                             1803.06  1855.44  1933.33  1947.35  2001.80
                             2030.38  2041.58  2085.78  2126.74  2165.86
                             2212.35  2257.71  2369.29  4319.59  4416.30
                             4490.61  4494.56  4525.18  4763.30  5293.31
                             5302.59  5312.81

 Zero-point correction=                           0.159717 (Hartree/Particle)
 Thermal correction to Energy=                    0.170997
 Thermal correction to Enthalpy=                  0.171941
 Thermal correction to Gibbs Free Energy=         0.123228
 Sum of electronic and zero-point Energies=           -610.128322
 Sum of electronic and thermal Energies=              -610.117043
 Sum of electronic and thermal Enthalpies=            -610.116099
 Sum of electronic and thermal Free Energies=         -610.164811

                     E (Thermal)             CV                S
                      KCal/Mol        Cal/Mol-Kelvin    Cal/Mol-Kelvin
 Total                  107.302             44.498            102.524
 Electronic               0.000              0.000              0.000
 Translational            0.889              2.981             41.283
 Rotational               0.889              2.981             30.716
 Vibrational            105.525             38.536             30.525
 Vibration     1          0.596              1.976              4.654
 Vibration     2          0.602              1.957              3.688
 Vibration     3          0.632              1.857              2.253
 Vibration     4          0.638              1.841              2.138
 Vibration     5          0.655              1.788              1.842
 Vibration     6          0.667              1.748              1.671
 Vibration     7          0.674              1.729              1.599
 Vibration     8          0.710              1.622              1.276
 Vibration     9          0.720              1.596              1.214
 Vibration    10          0.736              1.551              1.114
 Vibration    11          0.755              1.499              1.013
 Vibration    12          0.779              1.436              0.907
 Vibration    13          0.809              1.361              0.795
 Vibration    14          0.827              1.317              0.738
 Vibration    15          0.864              1.231              0.637
 Vibration    16          0.882              1.191              0.595
 Vibration    17          0.902              1.146              0.550
 Vibration    18          0.949              1.049              0.464
 Vibration    19          0.957              1.035              0.452

 Optimization completed.
    -- Stationary point found.
 Normal termination of Gaussian 09 at Tue Dec 17 20:23:33 2024.
