 Gaussian 09, Revision E.01,
 Gaussian 09:  ES64L-G09RevE.01 30-Nov-2015

 -----------------------------------------------------
 # opt freq pbepbe/6-31+g(d,p) empiricaldispersion=gd3
 -----------------------------------------------------

 ----------
 [No Title]
 ----------
 Symbolic Z-matrix:
 Charge =  0 Multiplicity = 1

 SCF Done:  E(RPBE-PBE) =  -609.935038948     A.U. after   16 cycles
 SCF Done:  E(RPBE-PBE) =  -609.936593821     A.U. after   13 cycles
 SCF Done:  E(RPBE-PBE) =  -609.935689120     A.U. after   14 cycles
 SCF Done:  E(RPBE-PBE) =  -609.936784171     A.U. after   11 cycles
 SCF Done:  E(RPBE-PBE) =  -609.936867816     A.U. after   12 cycles
 SCF Done:  E(RPBE-PBE) =  -609.936887001     A.U. after   12 cycles
 SCF Done:  E(RPBE-PBE) =  -609.936877270     A.U. after   11 cycles
 SCF Done:  E(RPBE-PBE) =  -609.936897642     A.U. after   11 cycles
 SCF Done:  E(RPBE-PBE) =  -609.936899148     A.U. after   10 cycles
 SCF Done:  E(RPBE-PBE) =  -609.936899583     A.U. after    9 cycles
 Optimization completed.
    -- Stationary point found.
 Normal termination of Gaussian 09 at Tue Dec 17 20:09:17 2024.

 ----------------------------------------------------------------------
 #N Geom=AllCheck Guess=TCheck SCRF=Check GenChk RPBEPBE/6-31+G(d,p) Fr
 eq
 ----------------------------------------------------------------------

 Structure from the checkpoint file:  "pbeD3THAP.chk"
 ----------
 [No Title]
 ----------
 Charge =  0 Multiplicity = 1

                         Standard orientation:
 ---------------------------------------------------------------------
 Center     Atomic      Atomic             Coordinates (Angstroms)
 Number     Number       Type             X           Y           Z
 ---------------------------------------------------------------------
      1          6           0       -1.542416    1.251134    0.000056
      2          6           0       -2.272919    0.045754    0.000021
      3          6           0       -1.628095   -1.193725   -0.000033
      4          6           0       -0.222090   -1.239378   -0.000052
      5          6           0        0.572111   -0.029143   -0.000005
      6          6           0       -0.148332    1.207155    0.000041
      7          8           0        0.573759    2.374282    0.000083
      8          6           0        2.028790   -0.159041    0.000006
      9          6           0        2.963342    1.027518   -0.000003
     10          8           0        2.557873   -1.311277    0.000007
     11          8           0        0.364422   -2.439898   -0.000143
     12          8           0       -3.634868    0.167245    0.000039
     13          1           0       -2.082866    2.202254    0.000096
     14          1           0       -2.180892   -2.137413   -0.000072
     15          1           0       -0.052045    3.122455    0.000118
     16          1           0        2.791323    1.666199    0.881119
     17          1           0        3.994409    0.648467   -0.000002
     18          1           0        2.791323    1.666190   -0.881132
     19          1           0        1.380834   -2.229541   -0.000205
     20          1           0       -4.033933   -0.723076    0.000008
 ---------------------------------------------------------------------

 SCF Done:  E(RPBE-PBE) =  -609.936899583     A.U. after    1 cycles

 The electronic state is 1-A.
 Alpha  occ. eigenvalues --  -18.84020 -18.83830 -18.79819 -18.78190  -9.99997
 Alpha  occ. eigenvalues --   -9.99614  -9.99244  -9.98644  -9.92628  -9.91740
 Alpha  occ. eigenvalues --   -9.91161  -9.90386  -1.00327  -0.99964  -0.98180
 Alpha  occ. eigenvalues --   -0.94463  -0.78474  -0.71133  -0.68517  -0.66568
 Alpha  occ. eigenvalues --   -0.59981  -0.58030  -0.54199  -0.52372  -0.47292
 Alpha  occ. eigenvalues --   -0.46898  -0.45428  -0.42868  -0.41141  -0.39932
 Alpha  occ. eigenvalues --   -0.38666  -0.38491  -0.37055  -0.36629  -0.36197
 Alpha  occ. eigenvalues --   -0.35388  -0.34003  -0.32527  -0.31861  -0.31772
 Alpha  occ. eigenvalues --   -0.26375  -0.22342  -0.21768  -0.20405
 Alpha virt. eigenvalues --   -0.08949  -0.03620  -0.03229  -0.02642  -0.00907
 Alpha virt. eigenvalues --    0.00317   0.02092   0.02489   0.02709   0.03408
 Alpha virt. eigenvalues --    0.04768   0.05347   0.06028   0.06154   0.07615

 Mulliken charges:
               1
     1  C    1.065903
     2  C   -0.863876
     3  C    1.018312
     4  C   -1.384357
     5  C    2.494476
     6  C   -2.553984
     7  O   -0.487746
     8  C    0.650432
     9  C   -0.567327
    10  O   -0.441684
    11  O   -0.489432
    12  O   -0.467969
    13  H    0.130422
    14  H    0.136376
    15  H    0.378473
    16  H    0.201488
    17  H    0.190956
    18  H    0.201487
    19  H    0.427947
    20  H    0.360103
 Sum of Mulliken charges =  -0.00000

 Dipole moment (field-independent basis, Debye):
    X=             -2.4182    Y=              3.1214    Z=             -0.0001  Tot=              3.9485
 Quadrupole moment (field-independent basis, Debye-Ang):
   XX=            -66.6248   YY=            -65.9491   ZZ=            -72.2012
   XY=              8.7548   XZ=             -0.0003   YZ=              0.0005

  Exact polarizability: 167.362  -1.343 129.742  -0.001   0.002  62.906
 Approx polarizability: 333.791 -25.349 273.715  -0.001   0.006 105.080

                      1                      2                      3
                      A                      A                      A
 Frequencies --     60.3499               113.2746               190.3791
 Red. masses --      3.9943                 8.4937                 2.4523
 Frc consts  --      0.0086                 0.0642                 0.0524
 IR Inten    --      0.9195                 0.2848                 3.9224

                      4                      5                      6
                      A                      A                      A
 Frequencies --    214.9455               217.7526               260.7376
 Red. masses --      2.4389                 2.0116                 4.4365
 Frc consts  --      0.0664                 0.0562                 0.1777
 IR Inten    --      0.0038                 0.9122                11.2355

                      7                      8                      9
                      A                      A                      A
 Frequencies --    272.9315               330.7348               355.3890
 Red. masses --      4.5885                 5.7948                 4.9736
 Frc consts  --      0.2014                 0.3735                 0.3701
 IR Inten    --      2.2877                 8.7072                 1.2631

                     10                     11                     12
                      A                      A                      A
 Frequencies --    373.6984               385.6867               403.0232
 Red. masses --      5.0821                 1.1573                 1.1145
 Frc consts  --      0.4182                 0.1014                 0.1067
 IR Inten    --      6.4211                 5.2066               179.6051

                     13                     14                     15
                      A                      A                      A
 Frequencies --    431.9951               510.5238               558.8944
 Red. masses --      6.3858                 6.7685                 3.0326
 Frc consts  --      0.7021                 1.0394                 0.5581
 IR Inten    --      5.2475                 8.8323                 0.0447

                     16                     17                     18
                      A                      A                      A
 Frequencies --    562.6713               597.2135               599.6599
 Red. masses --      6.2151                 7.6887                 3.0746
 Frc consts  --      1.1593                 1.6157                 0.6514
 IR Inten    --     18.7273                 7.5574                 1.4893

                     19                     20                     21
                      A                      A                      A
 Frequencies --    615.0806               625.6896               697.7924
 Red. masses --      2.8738                 3.9664                 5.5087
 Frc consts  --      0.6406                 0.9149                 1.5803
 IR Inten    --     13.3106                18.4610                 0.0813

                     22                     23                     24
                      A                      A                      A
 Frequencies --    698.7298               752.0884               768.1157
 Red. masses --      4.0137                 1.6998                 1.6631
 Frc consts  --      1.1546                 0.5665                 0.5781
 IR Inten    --     10.9015                39.1847                39.3715

                     25                     26                     27
                      A                      A                      A
 Frequencies --    949.0583              1002.0412              1003.6487
 Red. masses --      2.0796                 1.7102                 3.3229
 Frc consts  --      1.1036                 1.0118                 1.9721
 IR Inten    --     41.7824                18.3169                13.5949

                     28                     29                     30
                      A                      A                      A
 Frequencies --   1023.8146              1051.2964              1064.5077
 Red. masses --      1.0845                 2.6330                 4.3733
 Frc consts  --      0.6697                 1.7145                 2.9199
 IR Inten    --     56.9006                49.3949                58.6862

                     31                     32                     33
                      A                      A                      A
 Frequencies --   1148.1459              1170.6321              1197.0837
 Red. masses --      1.2863                 1.4072                 1.9553
 Frc consts  --      0.9991                 1.1362                 1.6508
 IR Inten    --    172.6118                17.3449               149.0238

                     34                     35                     36
                      A                      A                      A
 Frequencies --   1237.2657              1290.2065              1309.4198
 Red. masses --      1.6945                 2.9140                 2.6476
 Frc consts  --      1.5284                 2.8580                 2.6746
 IR Inten    --    183.8542                42.9778               122.9624

                     37                     38                     39
                      A                      A                      A
 Frequencies --   1353.3039              1392.4489              1401.2476
 Red. masses --      1.7104                 5.0923                 1.3382
 Frc consts  --      1.8457                 5.8174                 1.5481
 IR Inten    --    114.2251                16.3939                23.9775

                     40                     41                     42
                      A                      A                      A
 Frequencies --   1424.8597              1436.5552              1457.7884
 Red. masses --      1.0451                 2.9069                 3.4177
 Frc consts  --      1.2501                 3.5345                 4.2792
 IR Inten    --     13.2773                19.6622               125.0173

                     43                     44                     45
                      A                      A                      A
 Frequencies --   1521.1484              1593.4808              1602.2774
 Red. masses --      2.7486                 5.7757                 3.7667
 Frc consts  --      3.7472                 8.6407                 5.6976
 IR Inten    --    143.4331               203.0971               226.0003

                     46                     47                     48
                      A                      A                      A
 Frequencies --   1643.6450              2603.0169              2995.9229
 Red. masses --      3.8376                 1.0828                 1.0354
 Frc consts  --      6.1084                 4.3227                 5.4757
 IR Inten    --    646.5244               582.2690                 1.0957

                     49                     50                     51
                      A                      A                      A
 Frequencies --   3069.9873              3107.1276              3129.1429
 Red. masses --      1.0986                 1.1050                 1.0913
 Frc consts  --      6.1002                 6.2854                 6.2957
 IR Inten    --      2.7157                11.1669                 3.6060

                     52                     53                     54
                      A                      A                      A
 Frequencies --   3134.7176              3706.9465              3707.8004
 Red. masses --      1.0915                 1.0659                 1.0659
 Frc consts  --      6.3195                 8.6295                 8.6341
 IR Inten    --      3.8260                63.8805                67.3876

 - Thermochemistry -
 -------------------
 Temperature   298.150 Kelvin.  Pressure   1.00000 Atm.
 Atom     1 has atomic number  6 and mass  12.00000

 Molecular mass:   168.04226 amu.
 Principal axes and moments of inertia in atomic units:
                           1         2         3
     Eigenvalues --  1178.747242380.016773547.58718
           X            0.99940   0.03450   0.00000
           Y           -0.03450   0.99940  -0.00004
           Z           -0.00001   0.00004   1.00000
 This molecule is an asymmetric top.
 Rotational symmetry number  1.
 Warning -- assumption of classical behavior for rotation
           may cause significant error
 Rotational temperatures (Kelvin)      0.07348     0.03639     0.02441
 Rotational constants (GHZ):           1.53107     0.75829     0.50872
 Zero-point vibrational energy     384754.3 (Joules/Mol)
                                   91.95848 (Kcal/Mol)
 Warning -- explicit consideration of  19 degrees of freedom as
           vibrations may cause significant error
 Vibrational temperatures:     86.83   162.98   273.91   309.26   313.30
          (Kelvin)            375.14   392.69   475.85   511.32   537.67
                              554.92   579.86   621.54   734.53   804.12
                              809.56   859.26   862.78   884.96   900.23
                             1003.97  1005.32  1082.09  1105.15  1365.48
                             1441.71  1444.02  1473.04  1512.58  1531.59
                             1651.92  1684.28  1722.33  1780.15  1856.32
                             1883.96  1947.10  2003.42  2016.08  2050.05
                             2066.88  2097.43  2188.59  2292.66  2305.32
                             2364.84  3745.16  4310.46  4417.02  4470.46
                             4502.13  4510.15  5333.46  5334.69

 Zero-point correction=                           0.146545 (Hartree/Particle)
 Thermal correction to Energy=                    0.157429
 Thermal correction to Enthalpy=                  0.158373
 Thermal correction to Gibbs Free Energy=         0.110510
 Sum of electronic and zero-point Energies=           -609.790354
 Sum of electronic and thermal Energies=              -609.779471
 Sum of electronic and thermal Enthalpies=            -609.778527
 Sum of electronic and thermal Free Energies=         -609.826389

                     E (Thermal)             CV                S
                      KCal/Mol        Cal/Mol-Kelvin    Cal/Mol-Kelvin
 Total                   98.788             42.667            100.735
 Electronic               0.000              0.000              0.000
 Translational            0.889              2.981             41.265
 Rotational               0.889              2.981             30.677
 Vibrational             97.011             36.705             28.793
 Vibration     1          0.597              1.973              4.446
 Vibration     2          0.607              1.938              3.212
 Vibration     3          0.634              1.853              2.224
 Vibration     4          0.645              1.818              2.001
 Vibration     5          0.646              1.814              1.978
 Vibration     6          0.669              1.745              1.657
 Vibration     7          0.676              1.723              1.578
 Vibration     8          0.713              1.614              1.256
 Vibration     9          0.731              1.564              1.142
 Vibration    10          0.745              1.526              1.065
 Vibration    11          0.754              1.501              1.017
 Vibration    12          0.768              1.464              0.952
 Vibration    13          0.793              1.401              0.852
 Vibration    14          0.866              1.227              0.632
 Vibration    15          0.914              1.120              0.526
 Vibration    16          0.918              1.112              0.519
 Vibration    17          0.955              1.038              0.454
 Vibration    18          0.958              1.033              0.450
 Vibration    19          0.975              1.000              0.424

 Optimization completed.
    -- Stationary point found.
 Normal termination of Gaussian 09 at Tue Dec 17 20:10:15 2024.
