 Gaussian 09, Revision E.01,
 Gaussian 09:  ES64L-G09RevE.01 30-Nov-2015

 ----------------------------
 # opt freq m062x/aug-cc-pvdz
 ----------------------------

 ----------
 [No Title]
 ----------
 Symbolic Z-matrix:
 Charge =  1 Multiplicity = 1

 SCF Done:  E(RM062X) =  -802.651990775     A.U. after   25 cycles
 SCF Done:  E(RM062X) =  -802.652214898     A.U. after   20 cycles
 SCF Done:  E(RM062X) =  -802.652257180     A.U. after   19 cycles
 SCF Done:  E(RM062X) =  -802.652285228     A.U. after   17 cycles
 SCF Done:  E(RM062X) =  -802.652331675     A.U. after   18 cycles
 SCF Done:  E(RM062X) =  -802.652368703     A.U. after   20 cycles
 SCF Done:  E(RM062X) =  -802.652383890     A.U. after   18 cycles
 SCF Done:  E(RM062X) =  -802.652391771     A.U. after   18 cycles
 SCF Done:  E(RM062X) =  -802.652392600     A.U. after   19 cycles
 SCF Done:  E(RM062X) =  -802.652393009     A.U. after   15 cycles
 SCF Done:  E(RM062X) =  -802.652393082     A.U. after   16 cycles
 Optimization completed.
    -- Stationary point found.
 Normal termination of Gaussian 09 at Sat Dec 14 19:40:51 2024.

 ----------------------------------------------------------------------
 #N Geom=AllCheck Guess=TCheck SCRF=Check GenChk RM062X/Aug-CC-pVDZ Fre
 q
 ----------------------------------------------------------------------

 Structure from the checkpoint file:  "pvdzSAYang.chk"
 ----------
 [No Title]
 ----------
 Charge =  1 Multiplicity = 1

                         Standard orientation:
 ---------------------------------------------------------------------
 Center     Atomic      Atomic             Coordinates (Angstroms)
 Number     Number       Type             X           Y           Z
 ---------------------------------------------------------------------
      1          6           0        2.397471    0.202951    0.000179
      2          6           0        1.927203   -1.131198    0.000106
      3          6           0        0.560179   -1.350051   -0.000046
      4          6           0       -0.349278   -0.260709   -0.000080
      5          6           0        0.131273    1.074570   -0.000009
      6          6           0        1.490699    1.295461    0.000111
      7          8           0        3.702714    0.412655    0.000296
      8          8           0        2.885369   -2.069629    0.000192
      9          6           0        2.465184   -3.428048   -0.000340
     10          8           0        2.117333    2.493108    0.000198
     11          6           0        1.302828    3.661772   -0.000503
     12          6           0       -1.729528   -0.563933   -0.000114
     13          6           0       -2.786733    0.334677    0.000066
     14          6           0       -4.100767   -0.117452    0.000100
     15          8           0       -5.067322    0.774551    0.000212
     16          8           0       -4.374766   -1.406303    0.000002
     17          1           0        0.166968   -2.363477   -0.000129
     18          1           0       -0.558153    1.913000   -0.000065
     19          1           0        3.874660    1.368094    0.000277
     20          1           0        3.380665   -4.021019   -0.000436
     21          1           0        1.878303   -3.651318    0.901344
     22          1           0        1.878521   -3.650657   -0.902333
     23          1           0        1.991832    4.507460   -0.000755
     24          1           0        0.678308    3.688581   -0.903078
     25          1           0        0.677975    3.689421    0.901820
     26          1           0       -1.985128   -1.625837   -0.000211
     27          1           0       -2.660212    1.412472    0.000305
     28          1           0       -5.962523    0.406661   -0.000136
     29          1           0       -5.319013   -1.616669   -0.000628
 ---------------------------------------------------------------------

 SCF Done:  E(RM062X) =  -802.652393082     A.U. after    3 cycles

 The electronic state is 1-A.
 Alpha  occ. eigenvalues --  -19.87916 -19.87812 -19.81080 -19.80982 -19.79089
 Alpha  occ. eigenvalues --  -10.88050 -10.76390 -10.74984 -10.74337 -10.74136
 Alpha  occ. eigenvalues --  -10.71779 -10.70697 -10.70333 -10.70332 -10.69498
 Alpha  occ. eigenvalues --  -10.69359  -1.44353  -1.36093  -1.35092  -1.32295
 Alpha  occ. eigenvalues --   -1.30794  -1.10938  -1.06930  -1.00821  -0.99066
 Alpha  occ. eigenvalues --   -0.94186  -0.93265  -0.89690  -0.88101  -0.86185
 Alpha  occ. eigenvalues --   -0.81487  -0.79115  -0.77741  -0.75692  -0.73569
 Alpha  occ. eigenvalues --   -0.72732  -0.71320  -0.69854  -0.68413  -0.67901
 Alpha  occ. eigenvalues --   -0.66613  -0.66219  -0.64449  -0.63652  -0.62240
 Alpha  occ. eigenvalues --   -0.61942  -0.61359  -0.61127  -0.59126  -0.58015
 Alpha  occ. eigenvalues --   -0.57208  -0.55198  -0.54026  -0.53861  -0.52469
 Alpha  occ. eigenvalues --   -0.52031  -0.47618  -0.41341  -0.38579
 Alpha virt. eigenvalues --   -0.21526  -0.14319  -0.10343  -0.10109  -0.09715
 Alpha virt. eigenvalues --   -0.08871  -0.08533  -0.08241  -0.07079  -0.06871
 Alpha virt. eigenvalues --   -0.06292  -0.05948  -0.05645  -0.05634  -0.04511

 Mulliken charges:
               1
     1  C   -0.201414
     2  C   -0.114226
     3  C    1.629272
     4  C    1.709391
     5  C    1.795976
     6  C    0.232950
     7  O   -0.589460
     8  O   -0.636168
     9  C    1.158932
    10  O   -0.710650
    11  C    1.103193
    12  C    0.431927
    13  C    1.521312
    14  C    0.256585
    15  O   -0.507396
    16  O   -0.487417
    17  H   -1.413353
    18  H   -1.405682
    19  H    0.270235
    20  H   -0.549686
    21  H   -0.116317
    22  H   -0.116239
    23  H   -0.555126
    24  H   -0.077845
    25  H   -0.077924
    26  H   -1.021519
    27  H   -1.009423
    28  H    0.257843
    29  H    0.222227
 Sum of Mulliken charges =   1.00000

 Dipole moment (field-independent basis, Debye):
    X=            -10.5576    Y=             -0.1757    Z=             -0.0028  Tot=             10.5591
 Quadrupole moment (field-independent basis, Debye-Ang):
   XX=             -7.7232   YY=            -56.8646   ZZ=            -94.4904
   XY=             11.2906   XZ=              0.0055   YZ=              0.0016

  Exact polarizability: 335.570   6.084 172.169   0.007   0.003  86.202
 Approx polarizability: 408.930  10.819 201.989   0.010   0.004 118.888

                      1                      2                      3
                      A                      A                      A
 Frequencies --     55.3141                63.2441                68.5821
 Red. masses --      5.2612                 5.5453                 4.0921
 Frc consts  --      0.0095                 0.0131                 0.0113
 IR Inten    --      0.4975                 0.4653                 7.3411

                      4                      5                      6
                      A                      A                      A
 Frequencies --     74.5660               110.9338               149.3841
 Red. masses --      5.1452                 3.6124                 5.9293
 Frc consts  --      0.0169                 0.0262                 0.0780
 IR Inten    --      0.6547                 0.0151                 0.3478

                      7                      8                      9
                      A                      A                      A
 Frequencies --    176.0583               180.2419               206.7877
 Red. masses --      2.3032                 3.9980                 4.4846
 Frc consts  --      0.0421                 0.0765                 0.1130
 IR Inten    --     11.5840                 1.2453                 8.8925

                     10                     11                     12
                      A                      A                      A
 Frequencies --    219.0138               240.9598               255.3013
 Red. masses --      2.2400                 1.2658                 5.0793
 Frc consts  --      0.0633                 0.0433                 0.1951
 IR Inten    --      1.2806                 0.6523                 7.3144

                     13                     14                     15
                      A                      A                      A
 Frequencies --    286.5717               309.7366               312.4348
 Red. masses --      1.1576                 1.4299                 6.6015
 Frc consts  --      0.0560                 0.0808                 0.3797
 IR Inten    --      0.2065                 0.0020                 4.1608

                     16                     17                     18
                      A                      A                      A
 Frequencies --    352.0032               368.1242               385.1451
 Red. masses --      2.7515                 4.4013                 4.5270
 Frc consts  --      0.2009                 0.3514                 0.3957
 IR Inten    --      0.0057                 3.9300                 3.6969

                     19                     20                     21
                      A                      A                      A
 Frequencies --    427.3877               488.0188               498.9057
 Red. masses --      2.8457                 1.1719                 6.1867
 Frc consts  --      0.3063                 0.1644                 0.9073
 IR Inten    --      0.0011               239.1017                33.0109

                     22                     23                     24
                      A                      A                      A
 Frequencies --    527.6709               533.5872               572.7285
 Red. masses --      6.6965                 5.1132                 2.0159
 Frc consts  --      1.0986                 0.8577                 0.3896
 IR Inten    --      4.4782                31.7161                34.2599

                     25                     26                     27
                      A                      A                      A
 Frequencies --    598.6482               617.2422               627.2079
 Red. masses --      4.1253                 1.5221                 3.2721
 Frc consts  --      0.8711                 0.3417                 0.7584
 IR Inten    --     31.6981                61.1194                 8.2420

                     28                     29                     30
                      A                      A                      A
 Frequencies --    675.7165               718.3099               727.4031
 Red. masses --      4.0852                 4.8606                 5.5299
 Frc consts  --      1.0990                 1.4776                 1.7239
 IR Inten    --      1.0002                47.4586                 1.3638

                     31                     32                     33
                      A                      A                      A
 Frequencies --    772.7231               839.9504               857.9334
 Red. masses --      5.9574                 5.5088                 1.5621
 Frc consts  --      2.0958                 2.2899                 0.6774
 IR Inten    --      1.8701                 3.7722                 0.9393

                     34                     35                     36
                      A                      A                      A
 Frequencies --    871.8056               890.7662               963.5653
 Red. masses --      1.5124                 1.5769                 4.7968
 Frc consts  --      0.6773                 0.7372                 2.6240
 IR Inten    --     45.1099                15.3782                 0.2182

                     37                     38                     39
                      A                      A                      A
 Frequencies --   1002.6116              1026.1626              1039.4030
 Red. masses --      4.5100                 1.3630                 3.4153
 Frc consts  --      2.6711                 0.8456                 2.1739
 IR Inten    --    223.4616                17.0631                22.2954

                     40                     41                     42
                      A                      A                      A
 Frequencies --   1099.5297              1157.5246              1165.5806
 Red. masses --      4.9679                 1.1142                 1.2797
 Frc consts  --      3.5386                 0.8796                 1.0243
 IR Inten    --      0.7160               123.2457                 1.3079

                     43                     44                     45
                      A                      A                      A
 Frequencies --   1174.7458              1179.5539              1184.3199
 Red. masses --      2.7946                 1.2701                 1.5519
 Frc consts  --      2.2722                 1.0412                 1.2824
 IR Inten    --    259.1494                 0.8604              2234.4948

                     46                     47                     48
                      A                      A                      A
 Frequencies --   1196.1451              1206.0567              1224.0574
 Red. masses --      1.4409                 1.3974                 1.6706
 Frc consts  --      1.2146                 1.1976                 1.4748
 IR Inten    --     67.0399                58.9853                32.1617

                     49                     50                     51
                      A                      A                      A
 Frequencies --   1259.2868              1288.2702              1308.4598
 Red. masses --      1.7380                 1.6594                 1.8098
 Frc consts  --      1.6238                 1.6226                 1.8255
 IR Inten    --    248.2114                11.4279               317.9287

                     52                     53                     54
                      A                      A                      A
 Frequencies --   1330.4707              1359.3752              1408.4685
 Red. masses --      1.5568                 3.1917                 2.6106
 Frc consts  --      1.6237                 3.4750                 3.0513
 IR Inten    --     30.1144                23.9343               578.9123

                     55                     56                     57
                      A                      A                      A
 Frequencies --   1436.9469              1458.8502              1469.4342
 Red. masses --      3.0823                 1.3108                 1.3428
 Frc consts  --      3.7498                 1.6436                 1.7083
 IR Inten    --    784.2960                14.4389                33.2387

                     58                     59                     60
                      A                      A                      A
 Frequencies --   1479.6510              1480.8010              1485.7774
 Red. masses --      1.0412                 1.0999                 1.1265
 Frc consts  --      1.3431                 1.4210                 1.4651
 IR Inten    --     13.2278                62.0682               148.4271

                     61                     62                     63
                      A                      A                      A
 Frequencies --   1486.1642              1510.2366              1538.8673
 Red. masses --      1.0443                 5.4329                 6.1046
 Frc consts  --      1.3589                 7.3008                 8.5175
 IR Inten    --     12.5040              1086.8375               353.9651

                     64                     65                     66
                      A                      A                      A
 Frequencies --   1559.3019              1638.6111              1639.6016
 Red. masses --      5.9920                 4.8525                 5.1025
 Frc consts  --      8.5839                 7.6765                 8.0818
 IR Inten    --    644.1225              1176.3100                86.0592

                     67                     68                     69
                      A                      A                      A
 Frequencies --   1660.0212              1690.0373              3051.5104
 Red. masses --      5.9385                 5.6561                 1.0356
 Frc consts  --      9.6417                 9.5183                 5.6818
 IR Inten    --    131.7446               505.7697                23.4779

                     70                     71                     72
                      A                      A                      A
 Frequencies --   3063.9604              3128.4656              3147.3171
 Red. masses --      1.0326                 1.1069                 1.1075
 Frc consts  --      5.7113                 6.3830                 6.4634
 IR Inten    --     18.2170                19.4874                14.9071

                     73                     74                     75
                      A                      A                      A
 Frequencies --   3198.4440              3209.5711              3222.3509
 Red. masses --      1.1043                 1.1008                 1.0918
 Frc consts  --      6.6559                 6.6809                 6.6792
 IR Inten    --      3.5345                 5.4249                 0.1301

                     76                     77                     78
                      A                      A                      A
 Frequencies --   3225.9582              3236.2480              3253.6263
 Red. masses --      1.0918                 1.0922                 1.0914
 Frc consts  --      6.6941                 6.7396                 6.8074
 IR Inten    --      1.6029                 1.4554                 2.5840

                     79                     80                     81
                      A                      A                      A
 Frequencies --   3763.1037              3810.1287              3834.8945
 Red. masses --      1.0653                 1.0678                 1.0669
 Frc consts  --      8.8882                 9.1333                 9.2444
 IR Inten    --    381.1978               272.8735               583.1748

 - Thermochemistry -
 -------------------
 Temperature   298.150 Kelvin.  Pressure   1.00000 Atm.
 Atom     1 has atomic number  6 and mass  12.00000

 Molecular mass:   225.07630 amu.
 Principal axes and moments of inertia in atomic units:
                           1         2         3
     Eigenvalues --  2516.453346529.937589022.95802
           X            0.99999  -0.00338  -0.00000
           Y            0.00338   0.99999  -0.00000
           Z            0.00000   0.00000   1.00000
 This molecule is an asymmetric top.
 Rotational symmetry number  1.
 Warning -- assumption of classical behavior for rotation
           may cause significant error
 Rotational temperatures (Kelvin)      0.03442     0.01326     0.00960
 Rotational constants (GHZ):           0.71718     0.27638     0.20002
 Zero-point vibrational energy     611972.9 (Joules/Mol)
                                  146.26503 (Kcal/Mol)
 Warning -- explicit consideration of  26 degrees of freedom as
           vibrations may cause significant error
 Vibrational temperatures:     79.58    90.99    98.67   107.28   159.61
          (Kelvin)            214.93   253.31   259.33   297.52   315.11
                              346.69   367.32   412.31   445.64   449.52
                              506.45   529.65   554.14   614.91   702.15
                              717.81   759.20   767.71   824.03   861.32
                              888.07   902.41   972.20  1033.49  1046.57
                             1111.77  1208.50  1234.37  1254.33  1281.61
                             1386.35  1442.53  1476.42  1495.47  1581.98
                             1665.42  1677.01  1690.20  1697.11  1703.97
                             1720.98  1735.24  1761.14  1811.83  1853.53
                             1882.58  1914.25  1955.84  2026.47  2067.44
                             2098.96  2114.19  2128.89  2130.54  2137.70
                             2138.26  2172.89  2214.08  2243.48  2357.59
                             2359.02  2388.40  2431.58  4390.44  4408.35
                             4501.16  4528.28  4601.84  4617.85  4636.24
                             4641.43  4656.23  4681.24  5414.26  5481.92
                             5517.55

 Zero-point correction=                           0.233088 (Hartree/Particle)
 Thermal correction to Energy=                    0.248895
 Thermal correction to Enthalpy=                  0.249840
 Thermal correction to Gibbs Free Energy=         0.189815
 Sum of electronic and zero-point Energies=           -802.419305
 Sum of electronic and thermal Energies=              -802.403498
 Sum of electronic and thermal Enthalpies=            -802.402553
 Sum of electronic and thermal Free Energies=         -802.462578

                     E (Thermal)             CV                S
                      KCal/Mol        Cal/Mol-Kelvin    Cal/Mol-Kelvin
 Total                  156.184             59.212            126.332
 Electronic               0.000              0.000              0.000
 Translational            0.889              2.981             42.136
 Rotational               0.889              2.981             33.361
 Vibrational            154.407             53.250             50.835
 Vibration     1          0.596              1.975              4.618
 Vibration     2          0.597              1.972              4.353
 Vibration     3          0.598              1.969              4.194
 Vibration     4          0.599              1.966              4.029
 Vibration     5          0.607              1.940              3.253
 Vibration     6          0.618              1.903              2.680
 Vibration     7          0.628              1.872              2.370
 Vibration     8          0.629              1.867              2.326
 Vibration     9          0.641              1.830              2.072
 Vibration    10          0.647              1.812              1.967
 Vibration    11          0.658              1.778              1.796
 Vibration    12          0.666              1.754              1.694
 Vibration    13          0.684              1.699              1.494
 Vibration    14          0.699              1.655              1.364
 Vibration    15          0.701              1.650              1.349
 Vibration    16          0.729              1.571              1.157
 Vibration    17          0.741              1.538              1.088
 Vibration    18          0.754              1.502              1.019
 Vibration    19          0.789              1.411              0.867
 Vibration    20          0.844              1.277              0.689
 Vibration    21          0.854              1.252              0.661
 Vibration    22          0.883              1.189              0.592
 Vibration    23          0.889              1.176              0.579
 Vibration    24          0.929              1.090              0.499
 Vibration    25          0.957              1.035              0.452
 Vibration    26          0.977              0.995              0.421

 Optimization completed.
    -- Stationary point found.
 Normal termination of Gaussian 09 at Sat Dec 14 20:50:41 2024.
