 Gaussian 09, Revision E.01,
 Gaussian 09:  ES64L-G09RevE.01 30-Nov-2015

 ----------------------------
 # opt freq m062x/aug-cc-pvdz
 ----------------------------

 ----------
 [No Title]
 ----------
 Symbolic Z-matrix:
 Charge =  0 Multiplicity = 1

 SCF Done:  E(RM062X) =  -802.293537345     A.U. after   22 cycles
 SCF Done:  E(RM062X) =  -802.293603237     A.U. after   21 cycles
 SCF Done:  E(RM062X) =  -802.293676050     A.U. after   20 cycles
 SCF Done:  E(RM062X) =  -802.293699037     A.U. after   23 cycles
 SCF Done:  E(RM062X) =  -802.293695439     A.U. after   13 cycles
 SCF Done:  E(RM062X) =  -802.293700392     A.U. after   20 cycles
 SCF Done:  E(RM062X) =  -802.293700898     A.U. after   20 cycles
 SCF Done:  E(RM062X) =  -802.293701493     A.U. after   15 cycles
 SCF Done:  E(RM062X) =  -802.266920764     A.U. after   21 cycles
 SCF Done:  E(RM062X) =  -802.293701550     A.U. after   11 cycles
 SCF Done:  E(RM062X) =  -802.307595543     A.U. after   22 cycles
 SCF Done:  E(RM062X) =  -802.310009713     A.U. after   21 cycles
 SCF Done:  E(RM062X) =  -802.310530613     A.U. after   15 cycles
 SCF Done:  E(RM062X) =  -802.309978820     A.U. after   22 cycles
 SCF Done:  E(RM062X) =  -802.310607118     A.U. after   17 cycles
 SCF Done:  E(RM062X) =  -802.310669640     A.U. after   19 cycles
 SCF Done:  E(RM062X) =  -802.310676001     A.U. after   19 cycles
 SCF Done:  E(RM062X) =  -802.310676166     A.U. after   17 cycles
 SCF Done:  E(RM062X) =  -802.310677704     A.U. after   18 cycles
 Optimization completed.
    -- Stationary point found.
 Normal termination of Gaussian 09 at Sat Dec 14 17:43:30 2024.

 ----------------------------------------------------------------------
 #N Geom=AllCheck Guess=TCheck SCRF=Check GenChk RM062X/Aug-CC-pVDZ Fre
 q
 ----------------------------------------------------------------------

 Structure from the checkpoint file:  "pvdzSA.chk"
 ----------
 [No Title]
 ----------
 Charge =  0 Multiplicity = 1

                         Standard orientation:
 ---------------------------------------------------------------------
 Center     Atomic      Atomic             Coordinates (Angstroms)
 Number     Number       Type             X           Y           Z
 ---------------------------------------------------------------------
      1          6           0       -2.386036   -0.221237   -0.000010
      2          6           0       -1.921963    1.099087    0.000181
      3          6           0       -0.546379    1.341434   -0.000064
      4          6           0        0.368322    0.280494   -0.000241
      5          6           0       -0.096776   -1.042685    0.000013
      6          6           0       -1.465099   -1.280043    0.000033
      7          8           0       -3.717408   -0.457242   -0.000516
      8          8           0       -2.883402    2.054787    0.000335
      9          6           0       -2.448445    3.401104    0.000068
     10          8           0       -2.057418   -2.511792    0.000229
     11          6           0       -1.199688   -3.639231    0.000074
     12          6           0        1.795326    0.602934   -0.000193
     13          6           0        2.825373   -0.258778    0.000235
     14          6           0        4.204991    0.263259    0.000055
     15          8           0        5.117190   -0.739261   -0.000131
     16          8           0        4.532859    1.427540    0.000022
     17          1           0       -0.167778    2.359970   -0.000112
     18          1           0        0.604608   -1.870994   -0.000100
     19          1           0       -3.845323   -1.415364   -0.000605
     20          1           0       -3.355944    4.008514    0.000097
     21          1           0       -1.855236    3.623804    0.898664
     22          1           0       -1.855413    3.623488   -0.898722
     23          1           0       -0.568354   -3.645641   -0.898967
     24          1           0       -0.568152   -3.645933    0.899088
     25          1           0       -1.850807   -4.515860    0.000285
     26          1           0        2.051163    1.665530   -0.000553
     27          1           0        2.710436   -1.340317    0.000698
     28          1           0        5.988473   -0.317489   -0.000176
 ---------------------------------------------------------------------

 SCF Done:  E(RM062X) =  -802.310677704     A.U. after   10 cycles

 The electronic state is 1-A.
 Alpha  occ. eigenvalues --  -19.69792 -19.68666 -19.68123 -19.67944 -19.62948
 Alpha  occ. eigenvalues --  -10.68365 -10.62540 -10.62117 -10.62027 -10.61869
 Alpha  occ. eigenvalues --  -10.60609 -10.57854 -10.57213 -10.56264 -10.56153
 Alpha  occ. eigenvalues --  -10.56115  -1.23362  -1.22537  -1.20682  -1.18454
 Alpha  occ. eigenvalues --   -1.13670  -0.97634  -0.91256  -0.87004  -0.85758
 Alpha  occ. eigenvalues --   -0.81668  -0.79550  -0.76081  -0.70419  -0.69449
 Alpha  occ. eigenvalues --   -0.65519  -0.63247  -0.62221  -0.59016  -0.58485
 Alpha  occ. eigenvalues --   -0.57736  -0.57227  -0.56138  -0.55597  -0.54206
 Alpha  occ. eigenvalues --   -0.53072  -0.52756  -0.50406  -0.50020  -0.49127
 Alpha  occ. eigenvalues --   -0.47938  -0.46542  -0.44895  -0.44059  -0.42908
 Alpha  occ. eigenvalues --   -0.42700  -0.42697  -0.40872  -0.40633  -0.39307
 Alpha  occ. eigenvalues --   -0.35489  -0.33976  -0.29083  -0.26023
 Alpha virt. eigenvalues --   -0.03977  -0.01137  -0.00179  -0.00059   0.00793
 Alpha virt. eigenvalues --    0.01479   0.01789   0.01836   0.02369   0.03096
 Alpha virt. eigenvalues --    0.03682   0.04207   0.04514   0.04847   0.04892

 Mulliken charges:
               1
     1  C   -0.245486
     2  C   -0.213452
     3  C    1.698525
     4  C    1.560645
     5  C    1.701185
     6  C    0.253111
     7  O   -0.636586
     8  O   -0.633972
     9  C    1.161303
    10  O   -0.714815
    11  C    1.111755
    12  C    0.853651
    13  C    1.116004
    14  C    0.308798
    15  O   -0.592380
    16  O   -0.602970
    17  H   -1.429281
    18  H   -1.476013
    19  H    0.215959
    20  H   -0.583542
    21  H   -0.121715
    22  H   -0.121685
    23  H   -0.080396
    24  H   -0.080319
    25  H   -0.590379
    26  H   -1.129318
    27  H   -0.987816
    28  H    0.259190
 Sum of Mulliken charges =   0.00000

 Dipole moment (field-independent basis, Debye):
    X=             -0.7753    Y=             -2.4319    Z=             -0.0004  Tot=              2.5525
 Quadrupole moment (field-independent basis, Debye-Ang):
   XX=           -101.6840   YY=            -75.1828   ZZ=            -96.5232
   XY=             -5.1860   XZ=              0.0014   YZ=             -0.0011

  Exact polarizability: 240.454  -4.077 179.589   0.001  -0.003  90.659
 Approx polarizability: 271.141  -5.025 215.628   0.002  -0.004 124.490

                      1                      2                      3
                      A                      A                      A
 Frequencies --     46.4439                64.1057                69.8609
 Red. masses --      6.7701                 3.2056                 5.7436
 Frc consts  --      0.0086                 0.0078                 0.0165
 IR Inten    --      0.1948                 7.7830                 0.3094

                      4                      5                      6
                      A                      A                      A
 Frequencies --     74.0947               105.0108               150.0136
 Red. masses --      6.8870                 3.5814                 3.9344
 Frc consts  --      0.0223                 0.0233                 0.0522
 IR Inten    --      0.0002                 0.0786                 0.0465

                      7                      8                      9
                      A                      A                      A
 Frequencies --    168.3721               183.5088               205.7314
 Red. masses --      4.0763                 4.6136                 4.6220
 Frc consts  --      0.0681                 0.0915                 0.1153
 IR Inten    --      2.8556                 3.5545                 1.1773

                     10                     11                     12
                      A                      A                      A
 Frequencies --    231.6721               256.8759               264.9452
 Red. masses --      2.0108                 5.2982                 2.0513
 Frc consts  --      0.0636                 0.2060                 0.0848
 IR Inten    --      0.1010                 0.9813                 0.0015

                     13                     14                     15
                      A                      A                      A
 Frequencies --    301.9669               307.5889               326.9997
 Red. masses --      6.6165                 1.3339                 1.5134
 Frc consts  --      0.3555                 0.0744                 0.0953
 IR Inten    --      5.9272                 0.0609                 0.0076

                     16                     17                     18
                      A                      A                      A
 Frequencies --    372.9166               385.5216               403.1366
 Red. masses --      4.2605                 4.4060                 4.4318
 Frc consts  --      0.3491                 0.3858                 0.4244
 IR Inten    --      0.9400                 0.8549                 0.3462

                     19                     20                     21
                      A                      A                      A
 Frequencies --    499.6647               500.5620               512.6265
 Red. masses --      1.0992                 5.9916                 5.1009
 Frc consts  --      0.1617                 0.8845                 0.7898
 IR Inten    --     89.5596                 8.7478                18.6541

                     22                     23                     24
                      A                      A                      A
 Frequencies --    539.2671               604.3540               612.1394
 Red. masses --      6.7988                 3.0477                 5.3635
 Frc consts  --      1.1649                 0.6559                 1.1841
 IR Inten    --      1.8407                 4.4164                81.1285

                     25                     26                     27
                      A                      A                      A
 Frequencies --    612.3399               660.0950               670.6703
 Red. masses --      2.3384                 1.5970                 4.0708
 Frc consts  --      0.5166                 0.4100                 1.0788
 IR Inten    --      7.7076                91.6870                15.0844

                     28                     29                     30
                      A                      A                      A
 Frequencies --    717.4397               760.3330               768.9459
 Red. masses --      4.7726                 5.2232                 3.3477
 Frc consts  --      1.4474                 1.7791                 1.1662
 IR Inten    --      2.1622                 3.5438                11.4739

                     31                     32                     33
                      A                      A                      A
 Frequencies --    829.9130               862.0692               865.0813
 Red. masses --      5.3828                 1.4876                 1.7368
 Frc consts  --      2.1844                 0.6514                 0.7658
 IR Inten    --     13.7525                 3.5789                43.1691

                     34                     35                     36
                      A                      A                      A
 Frequencies --    921.9489               961.3644               983.6632
 Red. masses --      2.0007                 4.8640                 3.4656
 Frc consts  --      1.0019                 2.6486                 1.9757
 IR Inten    --     10.3249                18.9302                13.3216

                     37                     38                     39
                      A                      A                      A
 Frequencies --   1030.9433              1040.9565              1114.7342
 Red. masses --      3.8126                 1.1969                 4.3135
 Frc consts  --      2.3875                 0.7641                 3.1581
 IR Inten    --      2.1299                27.5250                 0.5500

                     40                     41                     42
                      A                      A                      A
 Frequencies --   1167.0312              1167.5502              1181.8469
 Red. masses --      1.9752                 1.2811                 1.2765
 Frc consts  --      1.5850                 1.0289                 1.0505
 IR Inten    --    378.8133                 1.2360                 3.4421

                     43                     44                     45
                      A                      A                      A
 Frequencies --   1181.9658              1191.2267              1206.1681
 Red. masses --      2.4122                 2.0110                 1.3869
 Frc consts  --      1.9855                 1.6813                 1.1888
 IR Inten    --    284.3928               121.4507                14.2183

                     46                     47                     48
                      A                      A                      A
 Frequencies --   1215.4724              1251.5836              1269.4426
 Red. masses --      1.5040                 1.8065                 1.6143
 Frc consts  --      1.3091                 1.6672                 1.5327
 IR Inten    --     25.6828               263.1842                92.4691

                     49                     50                     51
                      A                      A                      A
 Frequencies --   1300.0092              1305.2190              1330.5020
 Red. masses --      2.0571                 2.4307                 1.4655
 Frc consts  --      2.0484                 2.4397                 1.5285
 IR Inten    --    226.4773                17.6993                14.4853

                     52                     53                     54
                      A                      A                      A
 Frequencies --   1380.4208              1413.4384              1436.2249
 Red. masses --      2.7311                 3.3970                 2.5517
 Frc consts  --      3.0663                 3.9985                 3.1012
 IR Inten    --    280.0649                39.6729               108.8396

                     55                     56                     57
                      A                      A                      A
 Frequencies --   1453.4013              1472.3269              1480.8074
 Red. masses --      1.2867                 1.3359                 1.0422
 Frc consts  --      1.6014                 1.7062                 1.3464
 IR Inten    --     39.1898                28.9540                10.2264

                     58                     59                     60
                      A                      A                      A
 Frequencies --   1483.9182              1486.1137              1493.0301
 Red. masses --      1.0447                 1.1128                 1.1505
 Frc consts  --      1.3554                 1.4481                 1.5111
 IR Inten    --      9.8641                13.5690                18.3608

                     61                     62                     63
                      A                      A                      A
 Frequencies --   1509.9191              1578.5542              1670.7306
 Red. masses --      3.8291                 5.5147                 7.6836
 Frc consts  --      5.1434                 8.0964                12.6365
 IR Inten    --    240.8786               311.1129                60.9150

                     64                     65                     66
                      A                      A                      A
 Frequencies --   1693.3472              1726.8725              1836.1579
 Red. masses --      7.0583                 6.7458                 9.2822
 Frc consts  --     11.9245                11.8523                18.4384
 IR Inten    --    216.2429               315.2727               358.6944

                     67                     68                     69
                      A                      A                      A
 Frequencies --   3044.9342              3056.8081              3114.5044
 Red. masses --      1.0360                 1.0340                 1.1060
 Frc consts  --      5.6592                 5.6923                 6.3210
 IR Inten    --     42.9316                35.0793                28.3568

                     70                     71                     72
                      A                      A                      A
 Frequencies --   3131.2830              3191.8794              3195.1445
 Red. masses --      1.1066                 1.1019                 1.0996
 Frc consts  --      6.3927                 6.6140                 6.6141
 IR Inten    --     22.8152                16.2735                19.4256

                     73                     74                     75
                      A                      A                      A
 Frequencies --   3202.5684              3222.5067              3227.6706
 Red. masses --      1.0906                 1.0926                 1.0913
 Frc consts  --      6.5902                 6.6848                 6.6986
 IR Inten    --      0.2676                 3.2034                 1.0631

                     76                     77                     78
                      A                      A                      A
 Frequencies --   3234.3549              3803.3829              3831.6912
 Red. masses --      1.0905                 1.0645                 1.0653
 Frc consts  --      6.7216                 9.0730                 9.2150
 IR Inten    --      2.8275               138.2480               155.0732

 - Thermochemistry -
 -------------------
 Temperature   298.150 Kelvin.  Pressure   1.00000 Atm.
 Atom     1 has atomic number  6 and mass  12.00000

 Molecular mass:   224.06847 amu.
 Principal axes and moments of inertia in atomic units:
                           1         2         3
     Eigenvalues --  2486.092216562.309359025.13894
           X            0.99994  -0.01092   0.00000
           Y            0.01092   0.99994  -0.00000
           Z           -0.00000   0.00000   1.00000
 This molecule is an asymmetric top.
 Rotational symmetry number  1.
 Warning -- assumption of classical behavior for rotation
           may cause significant error
 Rotational temperatures (Kelvin)      0.03484     0.01320     0.00960
 Rotational constants (GHZ):           0.72593     0.27502     0.19997
 Zero-point vibrational energy     580953.8 (Joules/Mol)
                                  138.85128 (Kcal/Mol)
 Warning -- explicit consideration of  25 degrees of freedom as
           vibrations may cause significant error
 Vibrational temperatures:     66.82    92.23   100.51   106.61   151.09
          (Kelvin)            215.84   242.25   264.03   296.00   333.32
                              369.59   381.20   434.46   442.55   470.48
                              536.54   554.68   580.02   718.91   720.20
                              737.55   775.88   869.53   880.73   881.02
                              949.73   964.94  1032.23  1093.95  1106.34
                             1194.06  1240.32  1244.66  1326.48  1383.19
                             1415.27  1483.30  1497.70  1603.85  1679.10
                             1679.84  1700.41  1700.58  1713.91  1735.40
                             1748.79  1800.75  1826.44  1870.42  1877.92
                             1914.29  1986.12  2033.62  2066.40  2091.12
                             2118.35  2130.55  2135.02  2138.18  2148.13
                             2172.43  2271.18  2403.81  2436.35  2484.58
                             2641.82  4380.98  4398.06  4481.07  4505.21
                             4592.40  4597.09  4607.78  4636.46  4643.89
                             4653.51  5472.21  5512.94

 Zero-point correction=                           0.221274 (Hartree/Particle)
 Thermal correction to Energy=                    0.236619
 Thermal correction to Enthalpy=                  0.237563
 Thermal correction to Gibbs Free Energy=         0.178149
 Sum of electronic and zero-point Energies=           -802.089404
 Sum of electronic and thermal Energies=              -802.074059
 Sum of electronic and thermal Enthalpies=            -802.073115
 Sum of electronic and thermal Free Energies=         -802.132528

                     E (Thermal)             CV                S
                      KCal/Mol        Cal/Mol-Kelvin    Cal/Mol-Kelvin
 Total                  148.481             57.181            125.047
 Electronic               0.000              0.000              0.000
 Translational            0.889              2.981             42.123
 Rotational               0.889              2.981             33.354
 Vibrational            146.703             51.220             49.570
 Vibration     1          0.595              1.979              4.963
 Vibration     2          0.597              1.971              4.327
 Vibration     3          0.598              1.968              4.157
 Vibration     4          0.599              1.966              4.042
 Vibration     5          0.605              1.945              3.359
 Vibration     6          0.618              1.903              2.672
 Vibration     7          0.625              1.881              2.454
 Vibration     8          0.631              1.862              2.292
 Vibration     9          0.640              1.832              2.081
 Vibration    10          0.653              1.793              1.866
 Vibration    11          0.666              1.751              1.683
 Vibration    12          0.671              1.737              1.629
 Vibration    13          0.694              1.670              1.406
 Vibration    14          0.697              1.659              1.375
 Vibration    15          0.711              1.622              1.275
 Vibration    16          0.744              1.528              1.068
 Vibration    17          0.754              1.501              1.017
 Vibration    18          0.769              1.463              0.951
 Vibration    19          0.855              1.251              0.659
 Vibration    20          0.856              1.249              0.657
 Vibration    21          0.868              1.222              0.627
 Vibration    22          0.894              1.163              0.567
 Vibration    23          0.963              1.023              0.442
 Vibration    24          0.971              1.006              0.429
 Vibration    25          0.972              1.006              0.429

 Optimization completed.
    -- Stationary point found.
 Normal termination of Gaussian 09 at Sat Dec 14 18:18:26 2024.
