 Gaussian 09, Revision E.01,
 Gaussian 09:  ES64L-G09RevE.01 30-Nov-2015

 -------------------------------------------------------
 # opt freq B2PLYP/6-31+g(d,p) EmpiricalDispersion=GD3BJ
 -------------------------------------------------------

 ----------
 [No Title]
 ----------
 Symbolic Z-matrix:
 Charge =  1 Multiplicity = 1

 SCF Done:  E(RB2PLYP) =  -687.036958688     A.U. after   15 cycles
 E2(B2PLYP) =    -0.6819891665D+00 E(B2PLYP) =    -0.68771894785420D+03
 SCF Done:  E(RB2PLYP) =  -687.036549000     A.U. after   12 cycles
 E2(B2PLYP) =    -0.6826300358D+00 E(B2PLYP) =    -0.68771917903553D+03
 SCF Done:  E(RB2PLYP) =  -687.036413148     A.U. after   11 cycles
 E2(B2PLYP) =    -0.6827917671D+00 E(B2PLYP) =    -0.68771920491537D+03
 SCF Done:  E(RB2PLYP) =  -687.036374406     A.U. after   10 cycles
 E2(B2PLYP) =    -0.6828358568D+00 E(B2PLYP) =    -0.68771921026233D+03
 SCF Done:  E(RB2PLYP) =  -687.036351667     A.U. after   11 cycles
 E2(B2PLYP) =    -0.6828633376D+00 E(B2PLYP) =    -0.68771921500434D+03
 SCF Done:  E(RB2PLYP) =  -687.036367878     A.U. after   11 cycles
 E2(B2PLYP) =    -0.6828501846D+00 E(B2PLYP) =    -0.68771921806255D+03
 SCF Done:  E(RB2PLYP) =  -687.036377010     A.U. after   10 cycles
 E2(B2PLYP) =    -0.6828420512D+00 E(B2PLYP) =    -0.68771921906098D+03
 SCF Done:  E(RB2PLYP) =  -687.036380016     A.U. after   10 cycles
 E2(B2PLYP) =    -0.6828393810D+00 E(B2PLYP) =    -0.68771921939698D+03
 SCF Done:  E(RB2PLYP) =  -687.036377189     A.U. after   10 cycles
 E2(B2PLYP) =    -0.6828423698D+00 E(B2PLYP) =    -0.68771921955839D+03
 SCF Done:  E(RB2PLYP) =  -687.036374216     A.U. after   10 cycles
 E2(B2PLYP) =    -0.6828453952D+00 E(B2PLYP) =    -0.68771921961135D+03
 Optimization completed.
    -- Stationary point found.
 Normal termination of Gaussian 09 at Wed Dec 18 20:56:12 2024.

 ----------------------------------------------------------------------
 #N Geom=AllCheck Guess=TCheck SCRF=Check GenChk RB2PLYP(FC)/6-31+G(d,p
 ) Freq
 ----------------------------------------------------------------------

 Structure from the checkpoint file:  "B2PLYPD3BJFAyang.chk"
 ----------
 [No Title]
 ----------
 Charge =  1 Multiplicity = 1

                         Standard orientation:
 ---------------------------------------------------------------------
 Center     Atomic      Atomic             Coordinates (Angstroms)
 Number     Number       Type             X           Y           Z
 ---------------------------------------------------------------------
      1          6           0        1.471266   -2.029619   -0.033633
      2          6           0        2.512251   -1.086927   -0.014998
      3          6           0        2.229382    0.308984    0.007212
      4          6           0        0.919138    0.738590    0.011298
      5          6           0       -0.146880   -0.211112   -0.002408
      6          6           0        0.161083   -1.598935   -0.032212
      7          8           0        3.774088   -1.511626   -0.019292
      8          6           0       -1.473055    0.277023    0.009960
      9          6           0       -2.642699   -0.474444    0.031829
     10          6           0       -3.889812    0.133098    0.002838
     11          8           0       -4.965006   -0.628111    0.137740
     12          8           0       -4.007149    1.445174   -0.168874
     13          8           0        3.348373    1.075093    0.020778
     14          6           0        3.194907    2.503114    0.040719
     15          1           0        1.727816   -3.080729   -0.054551
     16          1           0        0.683651    1.794744    0.028833
     17          1           0       -0.632332   -2.334224   -0.051828
     18          1           0        4.374218   -0.744773   -0.005460
     19          1           0       -1.588718    1.357412    0.003085
     20          1           0       -2.648467   -1.553920    0.071320
     21          1           0       -5.797867   -0.199745   -0.115017
     22          1           0       -4.867055    1.803730    0.100352
     23          1           0        4.203953    2.903247    0.046988
     24          1           0        2.664976    2.838249   -0.852998
     25          1           0        2.663881    2.813130    0.942826
 ---------------------------------------------------------------------

 SCF Done:  E(RB2PLYP) =  -687.036374216     A.U. after    1 cycles
 E2(B2PLYP) =    -0.6828453958D+00 E(B2PLYP) =    -0.68771921961204D+03
 E2(B2PLYP) =    -0.6828453958D+00 E(B2PLYP) =    -0.68771921961204D+03

 The electronic state is 1-A.
 Alpha  occ. eigenvalues --  -19.98966 -19.98717 -19.92007 -19.91369 -10.97128
 Alpha  occ. eigenvalues --  -10.85518 -10.83504 -10.83419 -10.79843 -10.79126
 Alpha  occ. eigenvalues --  -10.79062 -10.78894 -10.78790 -10.76982  -1.46407
 Alpha  occ. eigenvalues --   -1.38306  -1.36871  -1.33580  -1.13830  -1.09363
 Alpha  occ. eigenvalues --   -1.02783  -1.01447  -0.95620  -0.93190  -0.88444
 Alpha  occ. eigenvalues --   -0.87513  -0.84489  -0.80925  -0.78428  -0.75921
 Alpha  occ. eigenvalues --   -0.73311  -0.72437  -0.71735  -0.70173  -0.67868
 Alpha  occ. eigenvalues --   -0.66755  -0.65617  -0.64046  -0.63382  -0.62715
 Alpha  occ. eigenvalues --   -0.62420  -0.61087  -0.60178  -0.59321  -0.56756
 Alpha  occ. eigenvalues --   -0.55187  -0.54381  -0.53738  -0.48582  -0.42738
 Alpha  occ. eigenvalues --   -0.38791
 Alpha virt. eigenvalues --   -0.20288  -0.12449  -0.08647  -0.08442  -0.07535
 Alpha virt. eigenvalues --   -0.06578  -0.05959  -0.05575  -0.04319  -0.04066
 Alpha virt. eigenvalues --   -0.03077  -0.02612  -0.02107  -0.01701  -0.01458

 Mulliken charges:
               1
     1  C    0.199493
     2  C   -0.164215
     3  C    0.120045
     4  C   -0.158056
     5  C    0.200522
     6  C   -0.243535
     7  O   -0.500457
     8  C    0.104819
     9  C   -0.628360
    10  C    0.985919
    11  O   -0.445099
    12  O   -0.497317
    13  O   -0.495013
    14  C   -0.080556
    15  H    0.197026
    16  H    0.169047
    17  H    0.164389
    18  H    0.423448
    19  H    0.186800
    20  H    0.182799
    21  H    0.397604
    22  H    0.398841
    23  H    0.176225
    24  H    0.152880
    25  H    0.152751
 Sum of Mulliken charges =   1.00000

 Dipole moment (field-independent basis, Debye):
    X=             -8.2583    Y=              3.6647    Z=              0.0615  Tot=              9.0351
 Quadrupole moment (field-independent basis, Debye-Ang):
   XX=              5.8938   YY=            -62.2281   ZZ=            -83.4206
   XY=             -2.2673   XZ=              0.5446   YZ=              1.4328

  Exact polarizability: 327.054 -22.190 133.935  -0.671   0.029  69.488
 Approx polarizability: 333.203 -32.236 158.957  -1.051  -0.198  88.196

                      1                      2                      3
                      A                      A                      A
 Frequencies --     44.9283                58.0844                81.0393
 Red. masses --      6.1855                 5.4381                 3.5699
 Frc consts  --      0.0074                 0.0108                 0.0138
 IR Inten    --      0.1795                 1.0869                 6.2870

                      4                      5                      6
                      A                      A                      A
 Frequencies --     85.3180               139.3516               174.5212
 Red. masses --      4.7932                 5.2735                 2.6300
 Frc consts  --      0.0206                 0.0603                 0.0472
 IR Inten    --      1.3944                 2.1775                12.9113

                      7                      8                      9
                      A                      A                      A
 Frequencies --    194.5253               227.0709               229.0657
 Red. masses --      3.6010                 1.3742                 5.8199
 Frc consts  --      0.0803                 0.0417                 0.1799
 IR Inten    --     11.2660                20.5936                 3.7985

                     10                     11                     12
                      A                      A                      A
 Frequencies --    277.2084               308.9743               318.4372
 Red. masses --      1.6096                 5.4936                 2.6122
 Frc consts  --      0.0729                 0.3090                 0.1561
 IR Inten    --    146.8788                 2.4659                63.4664

                     13                     14                     15
                      A                      A                      A
 Frequencies --    354.9174               361.2765               425.9497
 Red. masses --      4.6606                 1.9124                 1.1969
 Frc consts  --      0.3459                 0.1471                 0.1279
 IR Inten    --     10.5669                75.5529               252.9784

                     16                     17                     18
                      A                      A                      A
 Frequencies --    437.3781               496.8158               522.9291
 Red. masses --      3.5634                 5.7348                 4.9744
 Frc consts  --      0.4016                 0.8340                 0.8015
 IR Inten    --      0.8787                11.0966                12.8293

                     19                     20                     21
                      A                      A                      A
 Frequencies --    528.9113               563.8108               584.2645
 Red. masses --      5.3050                 4.4844                 3.4023
 Frc consts  --      0.8744                 0.8399                 0.6843
 IR Inten    --     13.7661                32.5702                18.4073

                     22                     23                     24
                      A                      A                      A
 Frequencies --    585.9874               607.8277               631.3692
 Red. masses --      1.1709                 7.0213                 4.7397
 Frc consts  --      0.2369                 1.5284                 1.1132
 IR Inten    --    105.1376                 0.1467                14.1082

                     25                     26                     27
                      A                      A                      A
 Frequencies --    678.0799               782.4509               803.8731
 Red. masses --      5.4937                 5.7154                 1.3969
 Frc consts  --      1.4883                 2.0616                 0.5318
 IR Inten    --      5.8890                19.2592                 0.4919

                     28                     29                     30
                      A                      A                      A
 Frequencies --    832.5453               837.0140               840.6479
 Red. masses --      5.2880                 1.3199                 1.4973
 Frc consts  --      2.1595                 0.5448                 0.6234
 IR Inten    --      1.2667                38.1597                39.5288

                     31                     32                     33
                      A                      A                      A
 Frequencies --    938.8419               959.8094               986.4865
 Red. masses --      1.2375                 3.7011                 3.1356
 Frc consts  --      0.6426                 2.0089                 1.7978
 IR Inten    --      0.8474                64.4877               165.4022

                     34                     35                     36
                      A                      A                      A
 Frequencies --    990.9685              1047.6300              1155.2599
 Red. masses --      1.5022                 4.4408                 1.2846
 Frc consts  --      0.8691                 2.8716                 1.0102
 IR Inten    --     30.1523                63.8570               188.6217

                     37                     38                     39
                      A                      A                      A
 Frequencies --   1157.8150              1174.3883              1183.1325
 Red. masses --      1.4280                 1.4872                 1.2574
 Frc consts  --      1.1279                 1.2085                 1.0370
 IR Inten    --    121.8813              1265.6536                 1.3216

                     40                     41                     42
                      A                      A                      A
 Frequencies --   1207.6597              1234.5106              1244.6673
 Red. masses --      1.3601                 1.3037                 1.5633
 Frc consts  --      1.1688                 1.1706                 1.4269
 IR Inten    --     57.4643               177.9766                60.5037

                     43                     44                     45
                      A                      A                      A
 Frequencies --   1283.9143              1316.5764              1342.7156
 Red. masses --      2.0705                 1.7077                 2.3528
 Frc consts  --      2.0110                 1.7440                 2.4992
 IR Inten    --     34.6728                79.0185                88.1320

                     46                     47                     48
                      A                      A                      A
 Frequencies --   1362.6091              1379.5912              1443.1902
 Red. masses --      1.5083                 3.5022                 3.7088
 Frc consts  --      1.6500                 3.9273                 4.5513
 IR Inten    --    394.1118               369.1332               270.4963

                     49                     50                     51
                      A                      A                      A
 Frequencies --   1478.7020              1493.3293              1509.1870
 Red. masses --      4.5185                 1.6595                 2.2772
 Frc consts  --      5.8211                 2.1804                 3.0559
 IR Inten    --    314.8078                 0.8829                11.0180

                     52                     53                     54
                      A                      A                      A
 Frequencies --   1518.7678              1528.3133              1571.0673
 Red. masses --      1.0479                 1.0774                 3.6808
 Frc consts  --      1.4241                 1.4827                 5.3528
 IR Inten    --     13.2034                48.2002               777.6813

                     55                     56                     57
                      A                      A                      A
 Frequencies --   1614.5805              1626.0962              1647.2330
 Red. masses --      4.8091                 4.7500                 4.4028
 Frc consts  --      7.3865                 7.4001                 7.0387
 IR Inten    --    593.5531                40.5852              1387.1803

                     58                     59                     60
                      A                      A                      A
 Frequencies --   1689.8075              3081.7831              3167.1148
 Red. masses --      5.4259                 1.0320                 1.1087
 Frc consts  --      9.1284                 5.7747                 6.5524
 IR Inten    --    523.1498                24.7082                17.8181

                     61                     62                     63
                      A                      A                      A
 Frequencies --   3208.8782              3231.0254              3248.4160
 Red. masses --      1.0900                 1.1036                 1.0896
 Frc consts  --      6.6129                 6.7880                 6.7743
 IR Inten    --      0.3249                 4.6951                 0.7903

                     64                     65                     66
                      A                      A                      A
 Frequencies --   3248.8358              3262.3375              3277.9862
 Red. masses --      1.0907                 1.0965                 1.0909
 Frc consts  --      6.7827                 6.8758                 6.9065
 IR Inten    --      2.6187                 0.4931                 2.0888

                     67                     68                     69
                      A                      A                      A
 Frequencies --   3729.4372              3790.8540              3800.4293
 Red. masses --      1.0652                 1.0680                 1.0662
 Frc consts  --      8.7292                 9.0425                 9.0733
 IR Inten    --    400.7568                88.5652               673.4984

 - Thermochemistry -
 -------------------
 Temperature   298.150 Kelvin.  Pressure   1.00000 Atm.
 Atom     1 has atomic number  6 and mass  12.00000

 Molecular mass:   195.06573 amu.
 Principal axes and moments of inertia in atomic units:
                           1         2         3
     Eigenvalues --  1176.755946319.244277478.13627
           X            0.99994   0.01083   0.00022
           Y           -0.01083   0.99994   0.00249
           Z           -0.00019  -0.00249   1.00000
 This molecule is an asymmetric top.
 Rotational symmetry number  1.
 Warning -- assumption of classical behavior for rotation
           may cause significant error
 Rotational temperatures (Kelvin)      0.07360     0.01371     0.01158
 Rotational constants (GHZ):           1.53366     0.28559     0.24134
 Zero-point vibrational energy     521263.9 (Joules/Mol)
                                  124.58506 (Kcal/Mol)
 Warning -- explicit consideration of  23 degrees of freedom as
           vibrations may cause significant error
 Vibrational temperatures:     64.64    83.57   116.60   122.75   200.50
          (Kelvin)            251.10   279.88   326.70   329.57   398.84
                              444.54   458.16   510.65   519.80   612.85
                              629.29   714.81   752.38   760.98   811.20
                              840.63   843.10   874.53   908.40   975.60
                             1125.77  1156.59  1197.85  1204.28  1209.50
                             1350.78  1380.95  1419.33  1425.78  1507.30
                             1662.16  1665.84  1689.68  1702.26  1737.55
                             1776.18  1790.80  1847.26  1894.26  1931.87
                             1960.49  1984.92  2076.43  2127.52  2148.57
                             2171.38  2185.17  2198.90  2260.41  2323.02
                             2339.59  2370.00  2431.25  4433.99  4556.77
                             4616.85  4648.72  4673.74  4674.34  4693.77
                             4716.29  5365.82  5454.19  5467.96

 Zero-point correction=                           0.198539 (Hartree/Particle)
 Thermal correction to Energy=                    0.212314
 Thermal correction to Enthalpy=                  0.213258
 Thermal correction to Gibbs Free Energy=         0.157601
 Sum of electronic and zero-point Energies=           -687.520681
 Sum of electronic and thermal Energies=              -687.506906
 Sum of electronic and thermal Enthalpies=            -687.505961
 Sum of electronic and thermal Free Energies=         -687.561618

                     E (Thermal)             CV                S
                      KCal/Mol        Cal/Mol-Kelvin    Cal/Mol-Kelvin
 Total                  133.229             51.637            117.140
 Electronic               0.000              0.000              0.000
 Translational            0.889              2.981             41.710
 Rotational               0.889              2.981             32.386
 Vibrational            131.452             45.675             43.044
 Vibration     1          0.595              1.979              5.029
 Vibration     2          0.596              1.974              4.521
 Vibration     3          0.600              1.962              3.866
 Vibration     4          0.601              1.959              3.765
 Vibration     5          0.615              1.914              2.813
 Vibration     6          0.627              1.874              2.386
 Vibration     7          0.635              1.847              2.184
 Vibration     8          0.651              1.800              1.902
 Vibration     9          0.652              1.797              1.886
 Vibration    10          0.678              1.716              1.551
 Vibration    11          0.698              1.657              1.368
 Vibration    12          0.705              1.638              1.318
 Vibration    13          0.731              1.565              1.144
 Vibration    14          0.735              1.552              1.117
 Vibration    15          0.788              1.414              0.872
 Vibration    16          0.798              1.389              0.835
 Vibration    17          0.852              1.257              0.666
 Vibration    18          0.878              1.199              0.603
 Vibration    19          0.884              1.186              0.590
 Vibration    20          0.920              1.110              0.516
 Vibration    21          0.941              1.065              0.478
 Vibration    22          0.943              1.062              0.474
 Vibration    23          0.967              1.015              0.436

 Optimization completed.
    -- Stationary point found.
 Normal termination of Gaussian 09 at Wed Dec 18 21:56:30 2024.
