 Gaussian 09, Revision E.01,
 Gaussian 09:  ES64L-G09RevE.01 30-Nov-2015

 -------------------------------------------------------
 # opt freq B2PLYP/6-31+g(d,p) EmpiricalDispersion=GD3BJ
 -------------------------------------------------------

 ----------
 [No Title]
 ----------
 Symbolic Z-matrix:
 Charge =  0 Multiplicity = 1

 SCF Done:  E(RB2PLYP) =  -686.678468525     A.U. after   15 cycles
 E2(B2PLYP) =    -0.6861054551D+00 E(B2PLYP) =    -0.68736457398020D+03
 SCF Done:  E(RB2PLYP) =  -686.677975431     A.U. after   12 cycles
 E2(B2PLYP) =    -0.6868532366D+00 E(B2PLYP) =    -0.68736482866720D+03
 SCF Done:  E(RB2PLYP) =  -686.677864183     A.U. after   11 cycles
 E2(B2PLYP) =    -0.6869850314D+00 E(B2PLYP) =    -0.68736484921424D+03
 SCF Done:  E(RB2PLYP) =  -686.677808562     A.U. after   11 cycles
 E2(B2PLYP) =    -0.6870330040D+00 E(B2PLYP) =    -0.68736484156639D+03
 SCF Done:  E(RB2PLYP) =  -686.677847576     A.U. after   11 cycles
 E2(B2PLYP) =    -0.6870037690D+00 E(B2PLYP) =    -0.68736485134514D+03
 SCF Done:  E(RB2PLYP) =  -686.677855729     A.U. after    9 cycles
 E2(B2PLYP) =    -0.6869957389D+00 E(B2PLYP) =    -0.68736485146809D+03
 SCF Done:  E(RB2PLYP) =  -686.677864277     A.U. after   10 cycles
 E2(B2PLYP) =    -0.6869874328D+00 E(B2PLYP) =    -0.68736485170962D+03
 SCF Done:  E(RB2PLYP) =  -686.640235073     A.U. after   15 cycles
 E2(B2PLYP) =    -0.6968966332D+00 E(B2PLYP) =    -0.68733713170656D+03
 SCF Done:  E(RB2PLYP) =  -686.676463637     A.U. after   17 cycles
 E2(B2PLYP) =    -0.6877280896D+00 E(B2PLYP) =    -0.68736419172688D+03
 SCF Done:  E(RB2PLYP) =  -686.677661521     A.U. after   14 cycles
 E2(B2PLYP) =    -0.6873363671D+00 E(B2PLYP) =    -0.68736499788805D+03
 E2(B2PLYP) =    -0.6828312267D+00 E(B2PLYP) =    -0.68735526234949D+03
 E2(B2PLYP) =    -0.6856421257D+00 E(B2PLYP) =    -0.68736037663106D+03
 E2(B2PLYP) =    -0.6872006389D+00 E(B2PLYP) =    -0.68736502666289D+03
 E2(B2PLYP) =    -0.6810585659D+00 E(B2PLYP) =    -0.68735617585799D+03
 E2(B2PLYP) =    -0.6876276044D+00 E(B2PLYP) =    -0.68736210549495D+03
 E2(B2PLYP) =    -0.6872173782D+00 E(B2PLYP) =    -0.68736506501648D+03
 E2(B2PLYP) =    -0.6889429587D+00 E(B2PLYP) =    -0.68736210122487D+03
 E2(B2PLYP) =    -0.6874591419D+00 E(B2PLYP) =    -0.68736505563783D+03
 E2(B2PLYP) =    -0.6873321842D+00 E(B2PLYP) =    -0.68736514004346D+03
 E2(B2PLYP) =    -0.6872763712D+00 E(B2PLYP) =    -0.68736489707465D+03
 E2(B2PLYP) =    -0.6875465929D+00 E(B2PLYP) =    -0.68736501443879D+03
 SCF Done:  E(RB2PLYP) =  -686.677777154     A.U. after   12 cycles
 E2(B2PLYP) =    -0.6874071679D+00 E(B2PLYP) =    -0.68736518432158D+03
 SCF Done:  E(RB2PLYP) =  -686.678211359     A.U. after   15 cycles
 E2(B2PLYP) =    -0.6871527246D+00 E(B2PLYP) =    -0.68736536408378D+03
 SCF Done:  E(RB2PLYP) =  -686.678218571     A.U. after   14 cycles
 E2(B2PLYP) =    -0.6869621528D+00 E(B2PLYP) =    -0.68736518072389D+03
 SCF Done:  E(RB2PLYP) =  -686.678257818     A.U. after   14 cycles
 E2(B2PLYP) =    -0.6871994749D+00 E(B2PLYP) =    -0.68736545729291D+03
 SCF Done:  E(RB2PLYP) =  -686.678260451     A.U. after   13 cycles
 E2(B2PLYP) =    -0.6872182092D+00 E(B2PLYP) =    -0.68736547866035D+03
 SCF Done:  E(RB2PLYP) =  -686.678227629     A.U. after   12 cycles
 E2(B2PLYP) =    -0.6872581735D+00 E(B2PLYP) =    -0.68736548580198D+03
 SCF Done:  E(RB2PLYP) =  -686.678242344     A.U. after   12 cycles
 E2(B2PLYP) =    -0.6872479301D+00 E(B2PLYP) =    -0.68736549027372D+03
 SCF Done:  E(RB2PLYP) =  -686.678251834     A.U. after   12 cycles
 E2(B2PLYP) =    -0.6872402221D+00 E(B2PLYP) =    -0.68736549205660D+03
 SCF Done:  E(RB2PLYP) =  -686.678259580     A.U. after   11 cycles
 E2(B2PLYP) =    -0.6872329062D+00 E(B2PLYP) =    -0.68736549248577D+03
 Optimization completed.
    -- Stationary point found.
 Normal termination of Gaussian 09 at Wed Dec 18 18:49:37 2024.

 ----------------------------------------------------------------------
 #N Geom=AllCheck Guess=TCheck SCRF=Check GenChk RB2PLYP(FC)/6-31+G(d,p
 ) Freq
 ----------------------------------------------------------------------

 Structure from the checkpoint file:  "B2PLYPD3BJFA.chk"
 ----------
 [No Title]
 ----------
 Charge =  0 Multiplicity = 1

                         Standard orientation:
 ---------------------------------------------------------------------
 Center     Atomic      Atomic             Coordinates (Angstroms)
 Number     Number       Type             X           Y           Z
 ---------------------------------------------------------------------
      1          6           0        1.466660   -2.007982   -0.141158
      2          6           0        2.491382   -1.070785   -0.036482
      3          6           0        2.179867    0.301662    0.025439
      4          6           0        0.855224    0.719068   -0.012624
      5          6           0       -0.188131   -0.226646   -0.105849
      6          6           0        0.138164   -1.589950   -0.178842
      7          8           0        3.786941   -1.482793   -0.004603
      8          6           0       -1.565883    0.259716   -0.123560
      9          6           0       -2.682543   -0.469788    0.085163
     10          8           0        3.281697    1.114666    0.120969
     11          6           0        3.063378    2.522394    0.194175
     12          6           0       -4.058006    0.074683    0.099032
     13          8           0       -4.979087   -0.486467    0.658122
     14          8           0       -4.279662    1.265745   -0.536012
     15          1           0        1.727739   -3.057057   -0.200959
     16          1           0        0.610068    1.772241    0.039283
     17          1           0       -0.644426   -2.331280   -0.278479
     18          1           0        4.349830   -0.696658    0.068735
     19          1           0       -1.662161    1.333151   -0.280305
     20          1           0       -2.632573   -1.519687    0.344803
     21          1           0        4.050746    2.971030    0.265360
     22          1           0        2.557226    2.882784   -0.705111
     23          1           0        2.475967    2.777341    1.079957
     24          1           0       -3.512200    1.504693   -1.072857
 ---------------------------------------------------------------------

 SCF Done:  E(RB2PLYP) =  -686.678259580     A.U. after    1 cycles
 E2(B2PLYP) =    -0.6872329058D+00 E(B2PLYP) =    -0.68736549248535D+03
 E2(B2PLYP) =    -0.6872329058D+00 E(B2PLYP) =    -0.68736549248535D+03

 The electronic state is 1-A.
 Alpha  occ. eigenvalues --  -19.80960 -19.79942 -19.79494 -19.73589 -10.77618
 Alpha  occ. eigenvalues --  -10.71734 -10.71637 -10.70708 -10.68100 -10.66506
 Alpha  occ. eigenvalues --  -10.66278 -10.65861 -10.65525 -10.65088  -1.25048
 Alpha  occ. eigenvalues --   -1.24925  -1.21609  -1.16223  -1.00974  -0.94411
 Alpha  occ. eigenvalues --   -0.89344  -0.87894  -0.83092  -0.77340  -0.72938
 Alpha  occ. eigenvalues --   -0.71271  -0.68691  -0.66083  -0.63228  -0.61089
 Alpha  occ. eigenvalues --   -0.59341  -0.57740  -0.55998  -0.54366  -0.53372
 Alpha  occ. eigenvalues --   -0.52215  -0.52044  -0.50838  -0.50602  -0.47766
 Alpha  occ. eigenvalues --   -0.47747  -0.45645  -0.44334  -0.44111  -0.43214
 Alpha  occ. eigenvalues --   -0.42414  -0.39091  -0.35701  -0.34802  -0.30526
 Alpha  occ. eigenvalues --   -0.26335
 Alpha virt. eigenvalues --   -0.02919   0.01254   0.02313   0.02508   0.03192
 Alpha virt. eigenvalues --    0.03853   0.05029   0.05643   0.06661   0.06790
 Alpha virt. eigenvalues --    0.07561   0.07787   0.08400   0.09276   0.09746

 Mulliken charges:
               1
     1  C    0.425236
     2  C   -0.367572
     3  C    0.282868
     4  C   -0.087717
     5  C    0.310223
     6  C   -0.559019
     7  O   -0.561961
     8  C   -0.357044
     9  C    0.216782
    10  O   -0.499035
    11  C   -0.082476
    12  C    0.311085
    13  O   -0.488148
    14  O   -0.462849
    15  H    0.166426
    16  H    0.143586
    17  H    0.147494
    18  H    0.402226
    19  H    0.118701
    20  H    0.163517
    21  H    0.152174
    22  H    0.142429
    23  H    0.144470
    24  H    0.338605
 Sum of Mulliken charges =  -0.00000

 Dipole moment (field-independent basis, Debye):
    X=              6.2313    Y=              3.3463    Z=             -1.5432  Tot=              7.2393
 Quadrupole moment (field-independent basis, Debye-Ang):
   XX=           -116.9833   YY=            -71.9554   ZZ=            -84.7995
   XY=              8.3211   XZ=              8.0591   YZ=              0.0253

  Exact polarizability: 227.524   3.263 136.048  -4.189  -2.734  79.181
 Approx polarizability: 232.404   7.000 162.526  -6.884  -4.420  99.371

                      1                      2                      3
                      A                      A                      A
 Frequencies --     32.9962                60.7717                69.1866
 Red. masses --      5.7036                 5.6029                 3.7739
 Frc consts  --      0.0037                 0.0122                 0.0106
 IR Inten    --      3.4224                 3.4505                 3.6947

                      4                      5                      6
                      A                      A                      A
 Frequencies --     77.5455               132.3027               164.2139
 Red. masses --      5.8149                 3.1164                 4.2168
 Frc consts  --      0.0206                 0.0321                 0.0670
 IR Inten    --      5.2609                 6.6696                 1.9109

                      7                      8                      9
                      A                      A                      A
 Frequencies --    202.8124               216.1885               231.1910
 Red. masses --      3.2060                 2.5018                 2.5790
 Frc consts  --      0.0777                 0.0689                 0.0812
 IR Inten    --      3.6271                 2.0304                 1.9421

                     10                     11                     12
                      A                      A                      A
 Frequencies --    281.9422               312.3450               354.2862
 Red. masses --      2.1819                 5.7381                 4.8482
 Frc consts  --      0.1022                 0.3298                 0.3585
 IR Inten    --      0.6305                 5.8314                 3.2029

                     13                     14                     15
                      A                      A                      A
 Frequencies --    372.0832               441.9736               458.0260
 Red. masses --      4.2247                 2.6743                 1.1809
 Frc consts  --      0.3446                 0.3078                 0.1460
 IR Inten    --      9.1856                22.4055                84.9456

                     16                     17                     18
                      A                      A                      A
 Frequencies --    470.8473               493.3571               522.5431
 Red. masses --      1.5869                 2.3696                 5.4007
 Frc consts  --      0.2073                 0.3398                 0.8689
 IR Inten    --     59.9216                38.4698                 3.5848

                     19                     20                     21
                      A                      A                      A
 Frequencies --    560.2736               580.9676               583.6806
 Red. masses --      4.4501                 6.5873                 4.3782
 Frc consts  --      0.8230                 1.3100                 0.8788
 IR Inten    --      8.2568                23.4514                 7.1648

                     22                     23                     24
                      A                      A                      A
 Frequencies --    619.4703               648.4064               711.9324
 Red. masses --      8.7505                 5.4859                 5.1865
 Frc consts  --      1.9784                 1.3589                 1.5488
 IR Inten    --      2.3257                 2.9935                 1.6801

                     25                     26                     27
                      A                      A                      A
 Frequencies --    781.5604               813.0572               821.4038
 Red. masses --      5.4315                 1.3102                 1.7968
 Frc consts  --      1.9548                 0.5103                 0.7143
 IR Inten    --     11.8948                 4.9594                32.4808

                     28                     29                     30
                      A                      A                      A
 Frequencies --    825.7828               861.4833               915.2224
 Red. masses --      2.8271                 2.2572                 3.3305
 Frc consts  --      1.1359                 0.9870                 1.6437
 IR Inten    --     24.5430                10.8353                44.0966

                     31                     32                     33
                      A                      A                      A
 Frequencies --    924.5574               961.6794               996.8059
 Red. masses --      1.4340                 3.6647                 1.1210
 Frc consts  --      0.7222                 1.9969                 0.6563
 IR Inten    --      3.7152                 8.4037                47.1188

                     34                     35                     36
                      A                      A                      A
 Frequencies --   1066.6498              1155.7440              1184.5256
 Red. masses --      4.3001                 1.6339                 1.2613
 Frc consts  --      2.8825                 1.2859                 1.0427
 IR Inten    --     49.2251                40.1835                 1.0139

                     37                     38                     39
                      A                      A                      A
 Frequencies --   1185.0030              1202.1252              1226.9809
 Red. masses --      1.6080                 1.5894                 1.6633
 Frc consts  --      1.3304                 1.3532                 1.4753
 IR Inten    --     51.4473                29.5345               140.3187

                     40                     41                     42
                      A                      A                      A
 Frequencies --   1238.6870              1272.0883              1302.4636
 Red. masses --      1.3423                 2.2114                 2.0724
 Frc consts  --      1.2134                 2.1083                 2.0713
 IR Inten    --    117.9449                48.6196               200.7846

                     43                     44                     45
                      A                      A                      A
 Frequencies --   1317.1502              1334.7023              1346.3781
 Red. masses --      1.9953                 1.8596                 3.5427
 Frc consts  --      2.0396                 1.9518                 3.7837
 IR Inten    --    482.5987                99.3308               173.7571

                     46                     47                     48
                      A                      A                      A
 Frequencies --   1369.1554              1437.0600              1473.0573
 Red. masses --      1.4721                 2.9840                 3.0651
 Frc consts  --      1.6259                 3.6308                 3.9187
 IR Inten    --     16.0360                22.3342                18.8647

                     49                     50                     51
                      A                      A                      A
 Frequencies --   1503.2216              1517.2268              1533.3278
 Red. masses --      1.3211                 1.0485                 1.0661
 Frc consts  --      1.7589                 1.4221                 1.4768
 IR Inten    --     11.2663                 9.2892                50.3568

                     52                     53                     54
                      A                      A                      A
 Frequencies --   1567.5297              1647.9355              1662.3372
 Red. masses --      3.2888                 5.7797                 6.2773
 Frc consts  --      4.7612                 9.2478                10.2202
 IR Inten    --    248.6827               150.2993                53.5767

                     55                     56                     57
                      A                      A                      A
 Frequencies --   1690.8273              1798.6147              3067.5050
 Red. masses --      5.4527                 9.6654                 1.0325
 Frc consts  --      9.1846                18.4225                 5.7239
 IR Inten    --     44.6094               502.0520                43.5261

                     58                     59                     60
                      A                      A                      A
 Frequencies --   3144.0954              3161.5288              3208.4644
 Red. masses --      1.1074                 1.0883                 1.1023
 Frc consts  --      6.4499                 6.4091                 6.6858
 IR Inten    --     28.7236                20.7719                16.5244

                     61                     62                     63
                      A                      A                      A
 Frequencies --   3234.2757              3238.9583              3247.3993
 Red. masses --      1.0886                 1.0901                 1.0918
 Frc consts  --      6.7094                 6.7379                 6.7835
 IR Inten    --      4.9200                 5.2845                 0.4173

                     64                     65                     66
                      A                      A                      A
 Frequencies --   3251.9701              3786.8016              3832.6378
 Red. masses --      1.0934                 1.0652                 1.0656
 Frc consts  --      6.8126                 9.0000                 9.2222
 IR Inten    --      4.5370               155.9678                23.5075

 - Thermochemistry -
 -------------------
 Temperature   298.150 Kelvin.  Pressure   1.00000 Atm.
 Atom     1 has atomic number  6 and mass  12.00000

 Molecular mass:   194.05791 amu.
 Principal axes and moments of inertia in atomic units:
                           1         2         3
     Eigenvalues --  1181.821916337.905527401.22165
           X            0.99993   0.01184   0.00309
           Y           -0.01185   0.99993   0.00185
           Z           -0.00307  -0.00189   0.99999
 This molecule is an asymmetric top.
 Rotational symmetry number  1.
 Warning -- assumption of classical behavior for rotation
           may cause significant error
 Rotational temperatures (Kelvin)      0.07329     0.01367     0.01170
 Rotational constants (GHZ):           1.52708     0.28475     0.24384
 Zero-point vibrational energy     488718.3 (Joules/Mol)
                                  116.80648 (Kcal/Mol)
 Warning -- explicit consideration of  22 degrees of freedom as
           vibrations may cause significant error
 Vibrational temperatures:     47.47    87.44    99.54   111.57   190.35
          (Kelvin)            236.27   291.80   311.05   332.63   405.65
                              449.39   509.74   535.34   635.90   659.00
                              677.44   709.83   751.82   806.11   835.88
                              839.79   891.28   932.91  1024.31  1124.49
                             1169.81  1181.82  1188.12  1239.48  1316.80
                             1330.23  1383.64  1434.18  1534.67  1662.86
                             1704.27  1704.95  1729.59  1765.35  1782.19
                             1830.25  1873.95  1895.08  1920.34  1937.14
                             1969.91  2067.61  2119.40  2162.80  2182.95
                             2206.11  2255.32  2371.01  2391.73  2432.72
                             2587.80  4413.45  4523.65  4548.73  4616.26
                             4653.40  4660.13  4672.28  4678.85  5448.36
                             5514.30

 Zero-point correction=                           0.186143 (Hartree/Particle)
 Thermal correction to Energy=                    0.199576
 Thermal correction to Enthalpy=                  0.200520
 Thermal correction to Gibbs Free Energy=         0.144973
 Sum of electronic and zero-point Energies=           -687.179350
 Sum of electronic and thermal Energies=              -687.165916
 Sum of electronic and thermal Enthalpies=            -687.164972
 Sum of electronic and thermal Free Energies=         -687.220520

                     E (Thermal)             CV                S
                      KCal/Mol        Cal/Mol-Kelvin    Cal/Mol-Kelvin
 Total                  125.236             49.852            116.910
 Electronic               0.000              0.000              0.000
 Translational            0.889              2.981             41.694
 Rotational               0.889              2.981             32.383
 Vibrational            123.458             43.890             42.832
 Vibration     1          0.594              1.983              5.641
 Vibration     2          0.597              1.973              4.432
 Vibration     3          0.598              1.969              4.176
 Vibration     4          0.599              1.964              3.952
 Vibration     5          0.612              1.921              2.912
 Vibration     6          0.623              1.886              2.501
 Vibration     7          0.639              1.836              2.107
 Vibration     8          0.645              1.816              1.991
 Vibration     9          0.653              1.793              1.870
 Vibration    10          0.681              1.707              1.522
 Vibration    11          0.701              1.650              1.350
 Vibration    12          0.730              1.566              1.147
 Vibration    13          0.744              1.529              1.071
 Vibration    14          0.802              1.379              0.820
 Vibration    15          0.816              1.343              0.772
 Vibration    16          0.828              1.315              0.735
 Vibration    17          0.849              1.265              0.675
 Vibration    18          0.878              1.200              0.604
 Vibration    19          0.916              1.117              0.523
 Vibration    20          0.938              1.072              0.484
 Vibration    21          0.941              1.067              0.479
 Vibration    22          0.979              0.991              0.417

 Normal termination of Gaussian 09 at Wed Dec 18 19:33:13 2024.
