 Gaussian 09, Revision E.01,
 Gaussian 09:  ES64L-G09RevE.01 30-Nov-2015

 -------------------------------------
 # opt freq b3lyp/6-31+g(d,p) em=gd3bj
 -------------------------------------

 ----------
 [No Title]
 ----------
 Symbolic Z-matrix:
 Charge =  1 Multiplicity = 1

 SCF Done:  E(RB3LYP) =  -688.358752321     A.U. after   16 cycles
 SCF Done:  E(RB3LYP) =  -688.402752939     A.U. after   13 cycles
 SCF Done:  E(RB3LYP) =  -688.409977394     A.U. after   13 cycles
 SCF Done:  E(RB3LYP) =  -688.410835052     A.U. after   12 cycles
 SCF Done:  E(RB3LYP) =  -688.411296082     A.U. after   12 cycles
 SCF Done:  E(RB3LYP) =  -688.411426416     A.U. after   11 cycles
 SCF Done:  E(RB3LYP) =  -688.411476147     A.U. after   11 cycles
 SCF Done:  E(RB3LYP) =  -688.411487783     A.U. after   11 cycles
 SCF Done:  E(RB3LYP) =  -688.411488702     A.U. after    9 cycles
 Optimization completed.
    -- Stationary point found.
 Normal termination of Gaussian 09 at Tue May 28 17:56:44 2024.

 ----------------------------------------------------------------------
 #N Geom=AllCheck Guess=TCheck SCRF=Check GenChk RB3LYP/6-31+G(d,p) Fre
 q
 ----------------------------------------------------------------------

 Structure from the checkpoint file:  "b3lypFAyang.chk"
 ----------
 [No Title]
 ----------
 Charge =  1 Multiplicity = 1

                         Standard orientation:
 ---------------------------------------------------------------------
 Center     Atomic      Atomic             Coordinates (Angstroms)
 Number     Number       Type             X           Y           Z
 ---------------------------------------------------------------------
      1          6           0       -1.469995   -2.030139    0.023674
      2          6           0       -2.513225   -1.089521    0.011833
      3          6           0       -2.231818    0.307835   -0.005118
      4          6           0       -0.922965    0.737272   -0.011820
      5          6           0        0.146913   -0.209254   -0.002547
      6          6           0       -0.161381   -1.597781    0.018180
      7          8           0       -3.773054   -1.514712    0.017983
      8          6           0        1.472998    0.279774   -0.010873
      9          6           0        2.645135   -0.468448   -0.017510
     10          6           0        3.894687    0.134717    0.000094
     11          8           0        4.967218   -0.634181   -0.106509
     12          8           0        4.018076    1.450018    0.131794
     13          8           0       -3.349387    1.074433   -0.013231
     14          6           0       -3.208537    2.501577   -0.029802
     15          1           0       -1.724857   -3.083486    0.038972
     16          1           0       -0.690164    1.795406   -0.025097
     17          1           0        0.633773   -2.333436    0.030217
     18          1           0       -4.377544   -0.750374    0.009116
     19          1           0        1.585857    1.361810   -0.011655
     20          1           0        2.649727   -1.550362   -0.037282
     21          1           0        5.805565   -0.203389    0.125423
     22          1           0        4.885657    1.800738   -0.124958
     23          1           0       -4.222270    2.897747   -0.032393
     24          1           0       -2.677939    2.842670    0.865024
     25          1           0       -2.681489    2.822028   -0.934317
 ---------------------------------------------------------------------

 SCF Done:  E(RB3LYP) =  -688.411488702     A.U. after    1 cycles

 The electronic state is 1-A.
 Alpha  occ. eigenvalues --  -19.39252 -19.39095 -19.33462 -19.32852 -10.51733
 Alpha  occ. eigenvalues --  -10.41413 -10.39796 -10.38408 -10.36458 -10.35549
 Alpha  occ. eigenvalues --  -10.35474 -10.34815 -10.34697 -10.33546  -1.31433
 Alpha  occ. eigenvalues --   -1.23853  -1.23120  -1.20047  -1.01392  -0.97498
 Alpha  occ. eigenvalues --   -0.91745  -0.90450  -0.85584  -0.83358  -0.80020
 Alpha  occ. eigenvalues --   -0.78420  -0.75405  -0.72466  -0.70445  -0.67543
 Alpha  occ. eigenvalues --   -0.65545  -0.64257  -0.63943  -0.62573  -0.60546
 Alpha  occ. eigenvalues --   -0.59462  -0.58599  -0.57077  -0.55896  -0.55842
 Alpha  occ. eigenvalues --   -0.55293  -0.53596  -0.53306  -0.52473  -0.50977
 Alpha  occ. eigenvalues --   -0.48923  -0.47997  -0.47793  -0.43884  -0.39035
 Alpha  occ. eigenvalues --   -0.35701
 Alpha virt. eigenvalues --   -0.24929  -0.16328  -0.14409  -0.14284  -0.10739
 Alpha virt. eigenvalues --   -0.10157  -0.09633  -0.09496  -0.08088  -0.07599
 Alpha virt. eigenvalues --   -0.06547  -0.06281  -0.05612  -0.05017  -0.04855

 Mulliken charges:
               1
     1  C    0.115306
     2  C   -0.137371
     3  C    0.304757
     4  C   -0.303036
     5  C    0.195076
     6  C   -0.239716
     7  O   -0.455783
     8  C    0.166563
     9  C   -0.701532
    10  C    1.000010
    11  O   -0.409198
    12  O   -0.459139
    13  O   -0.448210
    14  C   -0.114399
    15  H    0.175945
    16  H    0.144438
    17  H    0.142040
    18  H    0.411962
    19  H    0.165438
    20  H    0.162734
    21  H    0.388629
    22  H    0.390719
    23  H    0.179847
    24  H    0.162502
    25  H    0.162419
 Sum of Mulliken charges =   1.00000

 Dipole moment (field-independent basis, Debye):
    X=              7.5316    Y=              3.4454    Z=             -0.0668  Tot=              8.2826
 Quadrupole moment (field-independent basis, Debye-Ang):
   XX=              7.5580   YY=            -62.1963   ZZ=            -82.8878
   XY=              2.1958   XZ=              0.3616   YZ=             -1.2841

  Exact polarizability: 316.340  19.785 134.510  -0.459  -0.082  69.470
 Approx polarizability: 581.195  70.347 216.248  -1.553   0.215 103.799

                      1                      2                      3
                      A                      A                      A
 Frequencies --     50.4377                60.8410                85.0983
 Red. masses --      6.3463                 5.7185                 5.1740
 Frc consts  --      0.0095                 0.0125                 0.0221
 IR Inten    --      0.4324                 1.7225                 0.8570

                      4                      5                      6
                      A                      A                      A
 Frequencies --     93.1219               145.8488               179.3093
 Red. masses --      3.3254                 5.2507                 2.3684
 Frc consts  --      0.0170                 0.0658                 0.0449
 IR Inten    --      5.6030                 2.1529                18.7720

                      7                      8                      9
                      A                      A                      A
 Frequencies --    193.4718               227.9857               230.5595
 Red. masses --      3.5968                 4.3053                 1.4367
 Frc consts  --      0.0793                 0.1318                 0.0450
 IR Inten    --      8.9705                19.1851                22.8559

                     10                     11                     12
                      A                      A                      A
 Frequencies --    270.3846               308.9613               324.9946
 Red. masses --      1.4051                 5.4617                 3.2310
 Frc consts  --      0.0605                 0.3072                 0.2011
 IR Inten    --    146.1728                 0.4620                20.0709

                     13                     14                     15
                      A                      A                      A
 Frequencies --    354.9197               371.3129               414.3801
 Red. masses --      4.6708                 2.1267                 1.1881
 Frc consts  --      0.3467                 0.1728                 0.1202
 IR Inten    --     11.5261                29.9614               253.0499

                     16                     17                     18
                      A                      A                      A
 Frequencies --    459.1973               497.1479               527.4593
 Red. masses --      3.2066                 5.7858                 5.2793
 Frc consts  --      0.3984                 0.8425                 0.8654
 IR Inten    --      0.3963                10.4500                12.6813

                     19                     20                     21
                      A                      A                      A
 Frequencies --    563.7887               578.1417               585.8067
 Red. masses --      4.5530                 2.7053                 3.6488
 Frc consts  --      0.8527                 0.5328                 0.7377
 IR Inten    --     35.2570                36.3522                15.4097

                     22                     23                     24
                      A                      A                      A
 Frequencies --    607.4230               632.2698               685.0991
 Red. masses --      1.2567                 4.7293                 5.2293
 Frc consts  --      0.2732                 1.1139                 1.4461
 IR Inten    --     83.9166                11.0573                 4.7225

                     25                     26                     27
                      A                      A                      A
 Frequencies --    720.0851               781.1321               832.9035
 Red. masses --      5.1702                 5.6867                 1.5619
 Frc consts  --      1.5795                 2.0444                 0.6384
 IR Inten    --      0.6772                18.1132                 7.9623

                     28                     29                     30
                      A                      A                      A
 Frequencies --    833.2719               864.7146               875.8380
 Red. masses --      5.0963                 1.5088                 1.4202
 Frc consts  --      2.0849                 0.6647                 0.6419
 IR Inten    --      1.8393                62.6139                 3.3136

                     31                     32                     33
                      A                      A                      A
 Frequencies --    957.1103               971.5487               986.8774
 Red. masses --      3.6793                 1.3033                 5.4510
 Frc consts  --      1.9858                 0.7248                 3.1279
 IR Inten    --     65.1204                 1.4286               135.6324

                     34                     35                     36
                      A                      A                      A
 Frequencies --   1004.8007              1044.1334              1142.2390
 Red. masses --      1.3051                 4.3537                 1.1504
 Frc consts  --      0.7763                 2.7966                 0.8844
 IR Inten    --     23.9163                63.3895               184.0543

                     37                     38                     39
                      A                      A                      A
 Frequencies --   1151.2701              1165.1769              1173.1940
 Red. masses --      1.6101                 1.4976                 1.2641
 Frc consts  --      1.2574                 1.1979                 1.0251
 IR Inten    --    120.1411              1151.3795                 0.9053

                     40                     41                     42
                      A                      A                      A
 Frequencies --   1198.4737              1225.4275              1236.6862
 Red. masses --      1.3539                 1.3048                 1.5610
 Frc consts  --      1.1457                 1.1544                 1.4066
 IR Inten    --     45.4230               174.7239                61.8782

                     43                     44                     45
                      A                      A                      A
 Frequencies --   1275.2934              1306.9189              1336.3089
 Red. masses --      2.0917                 1.7550                 2.4783
 Frc consts  --      2.0044                 1.7661                 2.6074
 IR Inten    --     30.6276                86.4369                79.3885

                     46                     47                     48
                      A                      A                      A
 Frequencies --   1353.4586              1370.8125              1432.2534
 Red. masses --      1.4662                 3.7643                 3.4548
 Frc consts  --      1.5824                 4.1676                 4.1755
 IR Inten    --    337.7688               334.4896               268.7224

                     49                     50                     51
                      A                      A                      A
 Frequencies --   1466.9808              1478.8313              1495.0710
 Red. masses --      4.6483                 1.5699                 2.0392
 Frc consts  --      5.8937                 2.0229                 2.6855
 IR Inten    --    323.1364                11.2064                24.5226

                     52                     53                     54
                      A                      A                      A
 Frequencies --   1500.1879              1506.1589              1562.3453
 Red. masses --      1.0448                 1.1883                 3.7409
 Frc consts  --      1.3854                 1.5882                 5.3799
 IR Inten    --     13.9170                30.6872               734.9903

                     55                     56                     57
                      A                      A                      A
 Frequencies --   1604.8603              1615.1537              1632.6279
 Red. masses --      4.7971                 4.4471                 4.5176
 Frc consts  --      7.2796                 6.8352                 7.0947
 IR Inten    --    492.4997                17.9913              1280.3038

                     58                     59                     60
                      A                      A                      A
 Frequencies --   1679.3257              3043.7967              3120.6765
 Red. masses --      5.5364                 1.0330                 1.1083
 Frc consts  --      9.1992                 5.6385                 6.3591
 IR Inten    --    402.1319                25.3735                18.7373

                     61                     62                     63
                      A                      A                      A
 Frequencies --   3184.0251              3186.9200              3221.8190
 Red. masses --      1.0899                 1.1025                 1.0889
 Frc consts  --      6.5100                 6.5975                 6.6593
 IR Inten    --      0.4075                 4.7581                 1.2130

                     64                     65                     66
                      A                      A                      A
 Frequencies --   3223.5803              3234.3845              3246.9278
 Red. masses --      1.0908                 1.0962                 1.0904
 Frc consts  --      6.6786                 6.7563                 6.7728
 IR Inten    --      2.5792                 0.5396                 1.3372

                     67                     68                     69
                      A                      A                      A
 Frequencies --   3713.1426              3774.6210              3784.0122
 Red. masses --      1.0652                 1.0680                 1.0662
 Frc consts  --      8.6526                 8.9649                 8.9944
 IR Inten    --    354.0167                66.6797               627.5425

 - Thermochemistry -
 -------------------
 Temperature   298.150 Kelvin.  Pressure   1.00000 Atm.
 Atom     1 has atomic number  6 and mass  12.00000

 Molecular mass:   195.06573 amu.
 Principal axes and moments of inertia in atomic units:
                           1         2         3
     Eigenvalues --  1176.994386333.214267494.73153
           X            0.99994  -0.01090   0.00016
           Y            0.01090   0.99994  -0.00222
           Z           -0.00014   0.00222   1.00000
 This molecule is an asymmetric top.
 Rotational symmetry number  1.
 Warning -- assumption of classical behavior for rotation
           may cause significant error
 Rotational temperatures (Kelvin)      0.07359     0.01368     0.01156
 Rotational constants (GHZ):           1.53335     0.28496     0.24080
 Zero-point vibrational energy     520156.3 (Joules/Mol)
                                  124.32033 (Kcal/Mol)
 Warning -- explicit consideration of  22 degrees of freedom as
           vibrations may cause significant error
 Vibrational temperatures:     72.57    87.54   122.44   133.98   209.84
          (Kelvin)            257.99   278.36   328.02   331.72   389.02
                              444.53   467.59   510.65   534.24   596.20
                              660.68   715.28   758.90   811.17   831.82
                              842.84   873.95   909.69   985.70  1036.04
                             1123.87  1198.36  1198.89  1244.13  1260.13
                             1377.07  1397.84  1419.89  1445.68  1502.27
                             1643.43  1656.42  1676.43  1687.96  1724.33
                             1763.11  1779.31  1834.86  1880.36  1922.65
                             1947.32  1972.29  2060.69  2110.66  2127.71
                             2151.07  2158.43  2167.02  2247.86  2309.03
                             2323.84  2348.98  2416.17  4379.34  4489.95
                             4581.10  4585.26  4635.47  4638.01  4653.55
                             4671.60  5342.38  5430.83  5444.34

 Zero-point correction=                           0.198117 (Hartree/Particle)
 Thermal correction to Energy=                    0.211691
 Thermal correction to Enthalpy=                  0.212635
 Thermal correction to Gibbs Free Energy=         0.157531
 Sum of electronic and zero-point Energies=           -688.213372
 Sum of electronic and thermal Energies=              -688.199798
 Sum of electronic and thermal Enthalpies=            -688.198853
 Sum of electronic and thermal Free Energies=         -688.253958

                     E (Thermal)             CV                S
                      KCal/Mol        Cal/Mol-Kelvin    Cal/Mol-Kelvin
 Total                  132.838             51.069            115.977
 Electronic               0.000              0.000              0.000
 Translational            0.889              2.981             41.710
 Rotational               0.889              2.981             32.391
 Vibrational            131.061             45.107             41.876
 Vibration     1          0.595              1.977              4.800
 Vibration     2          0.597              1.973              4.430
 Vibration     3          0.601              1.960              3.770
 Vibration     4          0.602              1.954              3.593
 Vibration     5          0.617              1.907              2.726
 Vibration     6          0.629              1.868              2.336
 Vibration     7          0.635              1.849              2.194
 Vibration     8          0.651              1.798              1.895
 Vibration     9          0.652              1.794              1.875
 Vibration    10          0.674              1.728              1.594
 Vibration    11          0.698              1.657              1.368
 Vibration    12          0.709              1.625              1.285
 Vibration    13          0.731              1.565              1.144
 Vibration    14          0.743              1.531              1.074
 Vibration    15          0.778              1.439              0.911
 Vibration    16          0.817              1.341              0.768
 Vibration    17          0.853              1.256              0.665
 Vibration    18          0.882              1.189              0.593
 Vibration    19          0.920              1.110              0.516
 Vibration    20          0.935              1.079              0.489
 Vibration    21          0.943              1.062              0.475
 Vibration    22          0.966              1.016              0.437

 Normal termination of Gaussian 09 at Tue May 28 18:01:32 2024.
