 Gaussian 09, Revision E.01,
 Gaussian 09:  ES64L-G09RevE.01 30-Nov-2015

 -------------------------------------
 # opt freq b3lyp/6-31+g(d,p) em=gd3bj
 -------------------------------------

 ----------
 [No Title]
 ----------
 Symbolic Z-matrix:
 Charge =  0 Multiplicity = 1

 SCF Done:  E(RB3LYP) =  -688.010831763     A.U. after   16 cycles
 SCF Done:  E(RB3LYP) =  -688.047993606     A.U. after   13 cycles
 SCF Done:  E(RB3LYP) =  -688.052121736     A.U. after   13 cycles
 SCF Done:  E(RB3LYP) =  -688.052359737     A.U. after   12 cycles
 SCF Done:  E(RB3LYP) =  -688.052395446     A.U. after   12 cycles
 SCF Done:  E(RB3LYP) =  -688.052397249     A.U. after   10 cycles
 Optimization completed.
    -- Stationary point found.
 Normal termination of Gaussian 09 at Tue May 28 16:57:55 2024.

 ----------------------------------------------------------------------
 #N Geom=AllCheck Guess=TCheck SCRF=Check GenChk RB3LYP/6-31+G(d,p) Fre
 q
 ----------------------------------------------------------------------

 Structure from the checkpoint file:  "b3lypFA.chk"
 ----------
 [No Title]
 ----------
 Charge =  0 Multiplicity = 1

                         Standard orientation:
 ---------------------------------------------------------------------
 Center     Atomic      Atomic             Coordinates (Angstroms)
 Number     Number       Type             X           Y           Z
 ---------------------------------------------------------------------
      1          6           0        1.458135   -2.016691    0.000055
      2          6           0        2.492997   -1.083219   -0.000030
      3          6           0        2.190673    0.293212   -0.000105
      4          6           0        0.867994    0.715039   -0.000095
      5          6           0       -0.186435   -0.224546   -0.000005
      6          6           0        0.133007   -1.592879    0.000070
      7          8           0        3.784056   -1.501876   -0.000040
      8          6           0       -1.558361    0.274980   -0.000009
      9          6           0       -2.695451   -0.449882    0.000013
     10          8           0        3.297123    1.103747   -0.000220
     11          6           0        3.100346    2.514385    0.000285
     12          6           0       -4.077691    0.074800    0.000029
     13          8           0       -5.044300   -0.657977    0.000128
     14          8           0       -4.272376    1.426772   -0.000145
     15          1           0        1.711170   -3.071241    0.000123
     16          1           0        0.632527    1.773239   -0.000169
     17          1           0       -0.655409   -2.336570    0.000147
     18          1           0        4.357905   -0.719244   -0.000066
     19          1           0       -1.620074    1.364809   -0.000026
     20          1           0       -2.670799   -1.533867    0.000047
     21          1           0        4.096560    2.956112    0.000463
     22          1           0        2.556303    2.833224   -0.896473
     23          1           0        2.556253    2.832567    0.897243
     24          1           0       -3.431736    1.904455   -0.000322
 ---------------------------------------------------------------------

 SCF Done:  E(RB3LYP) =  -688.052397249     A.U. after    1 cycles

 The electronic state is 1-A.
 Alpha  occ. eigenvalues --  -19.22251 -19.20870 -19.20459 -19.14129 -10.32644
 Alpha  occ. eigenvalues --  -10.27897 -10.27846 -10.27295 -10.24018 -10.22813
 Alpha  occ. eigenvalues --  -10.22492 -10.21843 -10.21727 -10.21490  -1.11107
 Alpha  occ. eigenvalues --   -1.10393  -1.08092  -1.02149  -0.88737  -0.82682
 Alpha  occ. eigenvalues --   -0.78527  -0.76974  -0.72947  -0.67743  -0.63950
 Alpha  occ. eigenvalues --   -0.62642  -0.60329  -0.58467  -0.55580  -0.53286
 Alpha  occ. eigenvalues --   -0.51748  -0.50335  -0.48642  -0.47398  -0.45626
 Alpha  occ. eigenvalues --   -0.44951  -0.44843  -0.43976  -0.43275  -0.41263
 Alpha  occ. eigenvalues --   -0.40510  -0.38566  -0.38258  -0.37678  -0.36961
 Alpha  occ. eigenvalues --   -0.36537  -0.32535  -0.30505  -0.28084  -0.26843
 Alpha  occ. eigenvalues --   -0.23051
 Alpha virt. eigenvalues --   -0.08261  -0.02899  -0.02290  -0.01203  -0.00174
 Alpha virt. eigenvalues --    0.00298   0.00929   0.02699   0.03073   0.03328
 Alpha virt. eigenvalues --    0.04688   0.04838   0.05298   0.06066   0.06584

 Mulliken charges:
               1
     1  C    0.180613
     2  C   -0.164079
     3  C    0.278593
     4  C   -0.499154
     5  C    0.202129
     6  C   -0.303540
     7  O   -0.523618
     8  C   -0.007200
     9  C    0.103904
    10  O   -0.453729
    11  C   -0.123928
    12  C    0.406602
    13  O   -0.453564
    14  O   -0.426650
    15  H    0.145469
    16  H    0.116441
    17  H    0.125282
    18  H    0.391797
    19  H    0.078666
    20  H    0.138201
    21  H    0.155923
    22  H    0.151490
    23  H    0.151489
    24  H    0.328864
 Sum of Mulliken charges =  -0.00000

 Dipole moment (field-independent basis, Debye):
    X=              6.8798    Y=              3.7662    Z=              0.0002  Tot=              7.8432
 Quadrupole moment (field-independent basis, Debye-Ang):
   XX=           -116.5083   YY=            -71.4010   ZZ=            -85.0552
   XY=              5.7989   XZ=              0.0037   YZ=              0.0003

  Exact polarizability: 241.167   3.890 140.542  -0.001  -0.003  74.137
 Approx polarizability: 365.869  10.083 222.185  -0.006  -0.006 110.051

 ******    1 imaginary frequencies (negative Signs) ******

                      1                      2                      3
                      A                      A                      A
 Frequencies --    -59.7658                32.3226                71.7351
 Red. masses --      2.7750                 4.0776                 3.8838
 Frc consts  --      0.0058                 0.0025                 0.0118
 IR Inten    --     18.7011                 0.2367                 8.8304

                      4                      5                      6
                      A                      A                      A
 Frequencies --     78.0744                85.3985               165.4209
 Red. masses --      4.0719                 6.0809                 4.1920
 Frc consts  --      0.0146                 0.0261                 0.0676
 IR Inten    --      0.1313                 3.8770                 0.4902

                      7                      8                      9
                      A                      A                      A
 Frequencies --    199.2069               214.0022               234.1271
 Red. masses --      3.8912                 1.5011                 7.2491
 Frc consts  --      0.0910                 0.0405                 0.2341
 IR Inten    --      4.2249                 0.0123                 6.9246

                     10                     11                     12
                      A                      A                      A
 Frequencies --    279.7671               304.7570               354.0944
 Red. masses --      2.1349                 6.2553                 3.1064
 Frc consts  --      0.0985                 0.3423                 0.2295
 IR Inten    --      0.1761                 7.4065                10.8201

                     13                     14                     15
                      A                      A                      A
 Frequencies --    360.5178               389.7081               455.8406
 Red. masses --      4.6686                 1.4416                 2.9124
 Frc consts  --      0.3575                 0.1290                 0.3566
 IR Inten    --      3.9763                71.4642                11.6467

                     16                     17                     18
                      A                      A                      A
 Frequencies --    488.6662               489.2413               528.7240
 Red. masses --      1.1147                 5.3355                 6.1031
 Frc consts  --      0.1568                 0.7524                 1.0052
 IR Inten    --    101.6903                 1.1868                 1.9972

                     19                     20                     21
                      A                      A                      A
 Frequencies --    576.0270               582.9861               583.5502
 Red. masses --      4.0814                 3.7997                 7.3085
 Frc consts  --      0.7979                 0.7609                 1.4663
 IR Inten    --      9.5686                 9.2116                30.6803

                     22                     23                     24
                      A                      A                      A
 Frequencies --    655.3061               698.0772               722.8961
 Red. masses --      5.7473                 4.9801                 4.6897
 Frc consts  --      1.4541                 1.4299                 1.4439
 IR Inten    --      2.5403                 0.0006                 0.1138

                     25                     26                     27
                      A                      A                      A
 Frequencies --    778.9560               825.0474               830.5153
 Red. masses --      5.9058                 5.3642                 1.4513
 Frc consts  --      2.1113                 2.1514                 0.5898
 IR Inten    --     11.1650                14.0856                18.7100

                     28                     29                     30
                      A                      A                      A
 Frequencies --    849.7062               884.5302               911.9328
 Red. masses --      1.5801                 2.0166                 5.2179
 Frc consts  --      0.6722                 0.9296                 2.5566
 IR Inten    --     33.0109                 0.3383                34.4578

                     31                     32                     33
                      A                      A                      A
 Frequencies --    952.8326               960.1772               992.4387
 Red. masses --      1.3067                 3.7670                 1.1225
 Frc consts  --      0.6990                 2.0462                 0.6514
 IR Inten    --      4.3183                 6.3694                39.9381

                     34                     35                     36
                      A                      A                      A
 Frequencies --   1062.7403              1151.4309              1174.9764
 Red. masses --      4.1903                 1.6243                 1.2678
 Frc consts  --      2.7884                 1.2688                 1.0313
 IR Inten    --     49.8739                44.0466                 0.8071

                     37                     38                     39
                      A                      A                      A
 Frequencies --   1175.9055              1194.5577              1218.8371
 Red. masses --      1.6064                 1.5117                 1.7254
 Frc consts  --      1.3087                 1.2709                 1.5101
 IR Inten    --     65.2754                19.2176               181.5218

                     40                     41                     42
                      A                      A                      A
 Frequencies --   1229.6779              1264.2184              1298.8874
 Red. masses --      1.3700                 2.4493                 2.3508
 Frc consts  --      1.2205                 2.3064                 2.3368
 IR Inten    --    119.4870                57.2711               307.3338

                     43                     44                     45
                      A                      A                      A
 Frequencies --   1312.5825              1325.8584              1340.0107
 Red. masses --      1.6961                 1.8569                 5.0919
 Frc consts  --      1.7217                 1.9232                 5.3870
 IR Inten    --    393.6793               142.0780               194.4132

                     46                     47                     48
                      A                      A                      A
 Frequencies --   1368.4821              1421.5022              1465.9718
 Red. masses --      1.3857                 2.6622                 2.5649
 Frc consts  --      1.5290                 3.1694                 3.2477
 IR Inten    --      1.1418                46.1706                12.6060

                     49                     50                     51
                      A                      A                      A
 Frequencies --   1489.4054              1497.0666              1509.7482
 Red. masses --      1.4245                 1.0452                 1.0674
 Frc consts  --      1.8619                 1.3802                 1.4334
 IR Inten    --     16.0856                 9.8450                46.7286

                     52                     53                     54
                      A                      A                      A
 Frequencies --   1560.2020              1636.7289              1653.3666
 Red. masses --      3.3997                 5.6284                 6.1993
 Frc consts  --      4.8758                 8.8836                 9.9846
 IR Inten    --    264.1138               190.0513                68.4566

                     55                     56                     57
                      A                      A                      A
 Frequencies --   1691.6692              1802.6149              3027.5825
 Red. masses --      5.4310                 9.8105                 1.0336
 Frc consts  --      9.1572                18.7822                 5.5820
 IR Inten    --     56.3900               571.2156                45.2871

                     58                     59                     60
                      A                      A                      A
 Frequencies --   3095.2793              3116.2949              3163.8623
 Red. masses --      1.1070                 1.0875                 1.1010
 Frc consts  --      6.2486                 6.2223                 6.4931
 IR Inten    --     30.8454                32.9933                17.3291

                     61                     62                     63
                      A                      A                      A
 Frequencies --   3207.8530              3209.8718              3217.8739
 Red. masses --      1.0884                 1.0897                 1.0913
 Frc consts  --      6.5988                 6.6149                 6.6579
 IR Inten    --      5.5339                 6.1399                 0.3605

                     64                     65                     66
                      A                      A                      A
 Frequencies --   3225.1745              3766.0423              3816.2449
 Red. masses --      1.0927                 1.0652                 1.0654
 Frc consts  --      6.6965                 8.9011                 9.1418
 IR Inten    --      5.0233               158.8662                15.2213

 - Thermochemistry -
 -------------------
 Temperature   298.150 Kelvin.  Pressure   1.00000 Atm.
 Atom     1 has atomic number  6 and mass  12.00000

 Molecular mass:   194.05791 amu.
 Principal axes and moments of inertia in atomic units:
                           1         2         3
     Eigenvalues --  1172.251736344.536067505.20826
           X            0.99994   0.01124   0.00000
           Y           -0.01124   0.99994   0.00000
           Z           -0.00000  -0.00000   1.00000
 This molecule is an asymmetric top.
 Rotational symmetry number  1.
 Warning -- assumption of classical behavior for rotation
           may cause significant error
 Rotational temperatures (Kelvin)      0.07389     0.01365     0.01154
 Rotational constants (GHZ):           1.53955     0.28446     0.24047
    1 imaginary frequencies ignored.
 Zero-point vibrational energy     485857.9 (Joules/Mol)
                                  116.12283 (Kcal/Mol)
 Warning -- explicit consideration of  20 degrees of freedom as
           vibrations may cause significant error
 Vibrational temperatures:     46.50   103.21   112.33   122.87   238.00
          (Kelvin)            286.61   307.90   336.86   402.52   438.48
                              509.46   518.70   560.70   655.85   703.08
                              703.91   760.71   828.77   838.79   839.60
                              942.84  1004.38  1040.08  1120.74  1187.06
                             1194.92  1222.54  1272.64  1312.07  1370.91
                             1381.48  1427.90  1529.04  1656.65  1690.53
                             1691.86  1718.70  1753.63  1769.23  1818.93
                             1868.81  1888.51  1907.61  1927.97  1968.94
                             2045.22  2109.20  2142.92  2153.94  2172.19
                             2244.78  2354.88  2378.82  2433.93  2593.56
                             4356.01  4453.41  4483.65  4552.09  4615.38
                             4618.28  4629.80  4640.30  5418.49  5490.72

 Zero-point correction=                           0.185054 (Hartree/Particle)
 Thermal correction to Energy=                    0.197754
 Thermal correction to Enthalpy=                  0.198698
 Thermal correction to Gibbs Free Energy=         0.144844
 Sum of electronic and zero-point Energies=           -687.867344
 Sum of electronic and thermal Energies=              -687.854644
 Sum of electronic and thermal Enthalpies=            -687.853699
 Sum of electronic and thermal Free Energies=         -687.907553

                     E (Thermal)             CV                S
                      KCal/Mol        Cal/Mol-Kelvin    Cal/Mol-Kelvin
 Total                  124.092             47.757            113.345
 Electronic               0.000              0.000              0.000
 Translational            0.889              2.981             41.694
 Rotational               0.889              2.981             32.390
 Vibrational            122.315             41.796             39.260
 Vibration     1          0.594              1.983              5.682
 Vibration     2          0.598              1.967              4.105
 Vibration     3          0.599              1.964              3.939
 Vibration     4          0.601              1.959              3.763
 Vibration     5          0.624              1.885              2.487
 Vibration     6          0.637              1.841              2.140
 Vibration     7          0.644              1.820              2.009
 Vibration     8          0.654              1.789              1.847
 Vibration     9          0.680              1.711              1.535
 Vibration    10          0.696              1.665              1.391
 Vibration    11          0.730              1.567              1.148
 Vibration    12          0.735              1.554              1.120
 Vibration    13          0.758              1.492              1.001
 Vibration    14          0.814              1.348              0.778
 Vibration    15          0.845              1.275              0.687
 Vibration    16          0.845              1.274              0.686
 Vibration    17          0.884              1.186              0.590
 Vibration    18          0.932              1.083              0.493
 Vibration    19          0.940              1.068              0.480
 Vibration    20          0.940              1.067              0.479

 Optimization completed.
    -- Stationary point found.
 Normal termination of Gaussian 09 at Tue May 28 17:01:33 2024.
