 Gaussian 09, Revision E.01,
 Gaussian 09:  ES64L-G09RevE.01 30-Nov-2015

 -------------------------------------------------------
 # opt freq b3pw91/6-31+g(d,p) EmpiricalDispersion=GD3BJ
 -------------------------------------------------------

 ----------
 [No Title]
 ----------
 Symbolic Z-matrix:
 Charge =  1 Multiplicity = 1

 SCF Done:  E(RB3PW91) =  -688.143688515     A.U. after   15 cycles
 SCF Done:  E(RB3PW91) =  -688.143724649     A.U. after   11 cycles
 SCF Done:  E(RB3PW91) =  -688.143728315     A.U. after   10 cycles
 Optimization completed.
    -- Stationary point found.
 Normal termination of Gaussian 09 at Wed Dec 18 19:48:19 2024.

 ----------------------------------------------------------------------
 #N Geom=AllCheck Guess=TCheck SCRF=Check GenChk RB3PW91/6-31+G(d,p) Fr
 eq
 ----------------------------------------------------------------------

 Structure from the checkpoint file:  "B3PW91D3BJFAyang.chk"
 ----------
 [No Title]
 ----------
 Charge =  1 Multiplicity = 1

                         Standard orientation:
 ---------------------------------------------------------------------
 Center     Atomic      Atomic             Coordinates (Angstroms)
 Number     Number       Type             X           Y           Z
 ---------------------------------------------------------------------
      1          6           0        1.470101   -2.026271   -0.022334
      2          6           0        2.510457   -1.085756   -0.011336
      3          6           0        2.227021    0.309065    0.004677
      4          6           0        0.919544    0.736257    0.011058
      5          6           0       -0.145713   -0.210487    0.002406
      6          6           0        0.163011   -1.595691   -0.017001
      7          8           0        3.767276   -1.503607   -0.017340
      8          6           0       -1.470763    0.276725    0.009902
      9          6           0       -2.639354   -0.470742    0.017182
     10          6           0       -3.887503    0.134846   -0.000111
     11          8           0       -4.955256   -0.632351    0.100417
     12          8           0       -4.004598    1.445666   -0.124971
     13          8           0        3.340215    1.072212    0.012006
     14          6           0        3.193931    2.490929    0.029226
     15          1           0        1.726300   -3.079703   -0.036793
     16          1           0        0.685487    1.794997    0.023524
     17          1           0       -0.631523   -2.332856   -0.028324
     18          1           0        4.362804   -0.734015   -0.008902
     19          1           0       -1.584215    1.359471    0.009830
     20          1           0       -2.646411   -1.553093    0.037259
     21          1           0       -5.794632   -0.195717   -0.106665
     22          1           0       -4.877096    1.795709    0.106604
     23          1           0        4.205124    2.894132    0.032439
     24          1           0        2.662885    2.832055   -0.865670
     25          1           0        2.665779    2.810408    0.933787
 ---------------------------------------------------------------------

 SCF Done:  E(RB3PW91) =  -688.143728315     A.U. after    1 cycles

 The electronic state is 1-A.
 Alpha  occ. eigenvalues --  -19.38359 -19.38199 -19.32418 -19.32095 -10.50362
 Alpha  occ. eigenvalues --  -10.39958 -10.38382 -10.37054 -10.34922 -10.34170
 Alpha  occ. eigenvalues --  -10.34146 -10.33443 -10.33327 -10.32141  -1.32270
 Alpha  occ. eigenvalues --   -1.24558  -1.23859  -1.20770  -1.01829  -0.97922
 Alpha  occ. eigenvalues --   -0.92121  -0.90789  -0.85979  -0.83671  -0.80573
 Alpha  occ. eigenvalues --   -0.78703  -0.75566  -0.72651  -0.70748  -0.67861
 Alpha  occ. eigenvalues --   -0.65736  -0.64631  -0.64234  -0.62754  -0.60869
 Alpha  occ. eigenvalues --   -0.59447  -0.58574  -0.57111  -0.56064  -0.56002
 Alpha  occ. eigenvalues --   -0.55603  -0.53660  -0.53384  -0.52454  -0.51218
 Alpha  occ. eigenvalues --   -0.48778  -0.48024  -0.47874  -0.44054  -0.39164
 Alpha  occ. eigenvalues --   -0.35747
 Alpha virt. eigenvalues --   -0.24918  -0.15172  -0.14281  -0.14179  -0.09598
 Alpha virt. eigenvalues --   -0.09003  -0.08539  -0.08412  -0.07715  -0.06515
 Alpha virt. eigenvalues --   -0.05400  -0.05152  -0.04418  -0.03905  -0.03729

 Mulliken charges:
               1
     1  C    0.160956
     2  C   -0.324557
     3  C    0.088006
     4  C   -0.173119
     5  C    0.295396
     6  C   -0.249668
     7  O   -0.431253
     8  C    0.062991
     9  C   -0.648991
    10  C    0.954716
    11  O   -0.390329
    12  O   -0.440351
    13  O   -0.398463
    14  C   -0.165473
    15  H    0.201388
    16  H    0.170023
    17  H    0.167295
    18  H    0.414618
    19  H    0.185949
    20  H    0.187914
    21  H    0.391963
    22  H    0.395153
    23  H    0.195419
    24  H    0.175267
    25  H    0.175152
 Sum of Mulliken charges =   1.00000

 Dipole moment (field-independent basis, Debye):
    X=             -7.7107    Y=              3.4803    Z=              0.0661  Tot=              8.4600
 Quadrupole moment (field-independent basis, Debye-Ang):
   XX=              9.6216   YY=            -61.1276   ZZ=            -82.4141
   XY=             -2.4554   XZ=              0.3134   YZ=              1.1514

  Exact polarizability: 312.529 -19.294 132.776  -0.452   0.042  68.027
 Approx polarizability: 574.814 -68.766 213.239  -1.500  -0.259 100.060

                      1                      2                      3
                      A                      A                      A
 Frequencies --     48.4953                60.1271                84.0150
 Red. masses --      6.5036                 5.8127                 5.1687
 Frc consts  --      0.0090                 0.0124                 0.0215
 IR Inten    --      0.5437                 2.0887                 0.9581

                      4                      5                      6
                      A                      A                      A
 Frequencies --     93.8986               144.2732               175.7650
 Red. masses --      3.2807                 5.1658                 2.4057
 Frc consts  --      0.0170                 0.0634                 0.0438
 IR Inten    --      5.4430                 3.3966                26.4656

                      7                      8                      9
                      A                      A                      A
 Frequencies --    192.6943               225.2466               228.2936
 Red. masses --      3.5464                 1.7402                 2.5027
 Frc consts  --      0.0776                 0.0520                 0.0769
 IR Inten    --      8.5277                46.7480                 6.6597

                     10                     11                     12
                      A                      A                      A
 Frequencies --    262.4843               308.3820               325.1993
 Red. masses --      1.4357                 5.6321                 3.2738
 Frc consts  --      0.0583                 0.3156                 0.2040
 IR Inten    --     96.6570                 0.0510                13.6198

                     13                     14                     15
                      A                      A                      A
 Frequencies --    353.7812               370.1237               422.2365
 Red. masses --      4.6760                 2.1420                 1.1858
 Frc consts  --      0.3448                 0.1729                 0.1246
 IR Inten    --     10.9552                23.5518               257.0316

                     16                     17                     18
                      A                      A                      A
 Frequencies --    458.4880               496.9953               527.4877
 Red. masses --      3.1985                 5.7521                 5.2966
 Frc consts  --      0.3961                 0.8371                 0.8683
 IR Inten    --      0.4027                11.0617                13.2385

                     19                     20                     21
                      A                      A                      A
 Frequencies --    564.9557               578.6677               586.5242
 Red. masses --      4.6611                 2.8294                 3.7679
 Frc consts  --      0.8765                 0.5582                 0.7637
 IR Inten    --     39.9003                33.2512                12.3759

                     22                     23                     24
                      A                      A                      A
 Frequencies --    612.8489               632.9441               691.6340
 Red. masses --      1.2177                 4.5962                 5.2264
 Frc consts  --      0.2695                 1.0849                 1.4730
 IR Inten    --     89.1388                 6.8882                 4.0666

                     25                     26                     27
                      A                      A                      A
 Frequencies --    723.8922               784.8541               830.1389
 Red. masses --      5.1466                 5.6249                 1.5587
 Frc consts  --      1.5890                 2.0415                 0.6328
 IR Inten    --      0.5697                16.3468                 7.1604

                     28                     29                     30
                      A                      A                      A
 Frequencies --    835.8674               860.3469               871.1291
 Red. masses --      5.2462                 1.5228                 1.4213
 Frc consts  --      2.1596                 0.6641                 0.6355
 IR Inten    --      2.0837                66.7715                 3.4308

                     31                     32                     33
                      A                      A                      A
 Frequencies --    964.6643               969.0937               997.2420
 Red. masses --      3.4192                 1.3065                 3.9464
 Frc consts  --      1.8747                 0.7229                 2.3123
 IR Inten    --     57.9479                 1.8521               113.5361

                     34                     35                     36
                      A                      A                      A
 Frequencies --   1001.4007              1058.6911              1140.1817
 Red. masses --      1.4114                 4.1414                 1.1361
 Frc consts  --      0.8339                 2.7349                 0.8702
 IR Inten    --     24.9259                54.9502               177.2896

                     37                     38                     39
                      A                      A                      A
 Frequencies --   1154.4249              1169.6545              1172.6385
 Red. masses --      1.5322                 1.4934                 1.2697
 Frc consts  --      1.2031                 1.2038                 1.0286
 IR Inten    --     96.4991              1172.4368                 0.7097

                     40                     41                     42
                      A                      A                      A
 Frequencies --   1199.0796              1225.2127              1235.6831
 Red. masses --      1.3722                 1.2820                 1.4895
 Frc consts  --      1.1624                 1.1339                 1.3400
 IR Inten    --     29.9252               133.4514                62.1474

                     43                     44                     45
                      A                      A                      A
 Frequencies --   1280.2447              1310.0935              1341.3599
 Red. masses --      1.8545                 1.9082                 2.0408
 Frc consts  --      1.7909                 1.9296                 2.1634
 IR Inten    --     23.1412                90.7279               105.6420

                     46                     47                     48
                      A                      A                      A
 Frequencies --   1350.4250              1385.4098              1443.7788
 Red. masses --      1.5968                 4.0522                 3.4317
 Frc consts  --      1.7157                 4.5825                 4.2147
 IR Inten    --    210.0493               407.0922               209.5865

                     49                     50                     51
                      A                      A                      A
 Frequencies --   1478.7297              1487.7397              1496.5713
 Red. masses --      1.3406                 3.8729                 1.0430
 Frc consts  --      1.7271                 5.0506                 1.3764
 IR Inten    --     10.4042               302.6227                15.1105

                     52                     53                     54
                      A                      A                      A
 Frequencies --   1500.1169              1513.1524              1576.0363
 Red. masses --      1.2349                 3.3718                 4.2544
 Frc consts  --      1.6374                 4.5486                 6.2262
 IR Inten    --     98.4822                19.2049               865.2696

                     55                     56                     57
                      A                      A                      A
 Frequencies --   1616.8271              1627.6318              1647.2810
 Red. masses --      5.0756                 4.7457                 4.9123
 Frc consts  --      7.8175                 7.4073                 7.8536
 IR Inten    --    518.1801                16.9705              1306.3135

                     58                     59                     60
                      A                      A                      A
 Frequencies --   1693.4180              3050.2502              3133.8321
 Red. masses --      5.8897                 1.0331                 1.1081
 Frc consts  --      9.9511                 5.6633                 6.4118
 IR Inten    --    374.8563                25.4408                17.0977

                     61                     62                     63
                      A                      A                      A
 Frequencies --   3191.0217              3200.2974              3230.2055
 Red. masses --      1.0901                 1.1027                 1.0912
 Frc consts  --      6.5402                 6.6538                 6.7086
 IR Inten    --      0.4543                 4.0283                 1.9629

                     64                     65                     66
                      A                      A                      A
 Frequencies --   3231.8377              3245.3333              3256.6842
 Red. masses --      1.0889                 1.0967                 1.0909
 Frc consts  --      6.7009                 6.8056                 6.8167
 IR Inten    --      1.6841                 0.5754                 1.7190

                     67                     68                     69
                      A                      A                      A
 Frequencies --   3735.2557              3808.7697              3818.5366
 Red. masses --      1.0651                 1.0680                 1.0662
 Frc consts  --      8.7556                 9.1279                 9.1598
 IR Inten    --    353.5776                86.2218               640.7373

 - Thermochemistry -
 -------------------
 Temperature   298.150 Kelvin.  Pressure   1.00000 Atm.
 Atom     1 has atomic number  6 and mass  12.00000

 Molecular mass:   195.06573 amu.
 Principal axes and moments of inertia in atomic units:
                           1         2         3
     Eigenvalues --  1169.391046301.857277456.20159
           X            0.99994   0.01085   0.00015
           Y           -0.01085   0.99994   0.00212
           Z           -0.00013  -0.00212   1.00000
 This molecule is an asymmetric top.
 Rotational symmetry number  1.
 Warning -- assumption of classical behavior for rotation
           may cause significant error
 Rotational temperatures (Kelvin)      0.07407     0.01374     0.01162
 Rotational constants (GHZ):           1.54332     0.28638     0.24205
 Zero-point vibrational energy     522113.7 (Joules/Mol)
                                  124.78817 (Kcal/Mol)
 Warning -- explicit consideration of  22 degrees of freedom as
           vibrations may cause significant error
 Vibrational temperatures:     69.77    86.51   120.88   135.10   207.58
          (Kelvin)            252.89   277.24   324.08   328.46   377.66
                              443.69   467.89   509.01   532.52   607.50
                              659.66   715.06   758.94   812.84   832.57
                              843.88   881.75   910.66   995.11  1041.52
                             1129.23  1194.38  1202.63  1237.85  1253.36
                             1387.94  1394.31  1434.81  1440.79  1523.22
                             1640.47  1660.96  1682.87  1687.16  1725.21
                             1762.81  1777.87  1841.98  1884.93  1929.92
                             1942.96  1993.29  2077.27  2127.56  2140.52
                             2153.23  2158.33  2177.09  2267.56  2326.25
                             2341.80  2370.07  2436.45  4388.62  4508.88
                             4591.16  4604.51  4647.54  4649.89  4669.30
                             4685.64  5374.19  5479.96  5494.02

 Zero-point correction=                           0.198863 (Hartree/Particle)
 Thermal correction to Energy=                    0.212453
 Thermal correction to Enthalpy=                  0.213397
 Thermal correction to Gibbs Free Energy=         0.158199
 Sum of electronic and zero-point Energies=           -687.944866
 Sum of electronic and thermal Energies=              -687.931276
 Sum of electronic and thermal Enthalpies=            -687.930332
 Sum of electronic and thermal Free Energies=         -687.985529

                     E (Thermal)             CV                S
                      KCal/Mol        Cal/Mol-Kelvin    Cal/Mol-Kelvin
 Total                  133.316             50.993            116.173
 Electronic               0.000              0.000              0.000
 Translational            0.889              2.981             41.710
 Rotational               0.889              2.981             32.374
 Vibrational            131.539             45.032             42.088
 Vibration     1          0.595              1.978              4.878
 Vibration     2          0.597              1.973              4.453
 Vibration     3          0.601              1.960              3.795
 Vibration     4          0.603              1.954              3.577
 Vibration     5          0.616              1.909              2.746
 Vibration     6          0.628              1.872              2.373
 Vibration     7          0.635              1.850              2.202
 Vibration     8          0.650              1.803              1.917
 Vibration     9          0.651              1.798              1.892
 Vibration    10          0.670              1.742              1.645
 Vibration    11          0.698              1.658              1.371
 Vibration    12          0.709              1.625              1.284
 Vibration    13          0.730              1.568              1.149
 Vibration    14          0.742              1.534              1.079
 Vibration    15          0.785              1.422              0.884
 Vibration    16          0.817              1.342              0.771
 Vibration    17          0.853              1.257              0.666
 Vibration    18          0.882              1.189              0.593
 Vibration    19          0.921              1.107              0.514
 Vibration    20          0.935              1.077              0.488
 Vibration    21          0.944              1.061              0.473
 Vibration    22          0.972              1.005              0.428

 Normal termination of Gaussian 09 at Wed Dec 18 19:50:30 2024.
