 Gaussian 09, Revision E.01,
 Gaussian 09:  ES64L-G09RevE.01 30-Nov-2015

 -------------------------------------------------------
 # opt freq b3pw91/6-31+g(d,p) EmpiricalDispersion=GD3BJ
 -------------------------------------------------------

 ----------
 [No Title]
 ----------
 Symbolic Z-matrix:
 Charge =  0 Multiplicity = 1

 SCF Done:  E(RB3PW91) =  -687.782628330     A.U. after   16 cycles
 SCF Done:  E(RB3PW91) =  -687.782664957     A.U. after   11 cycles
 SCF Done:  E(RB3PW91) =  -687.782669516     A.U. after   10 cycles
 SCF Done:  E(RB3PW91) =  -687.782669499     A.U. after   10 cycles
 SCF Done:  E(RB3PW91) =  -687.782670128     A.U. after    9 cycles
 SCF Done:  E(RB3PW91) =  -687.782670150     A.U. after    8 cycles
 SCF Done:  E(RB3PW91) =  -687.782670465     A.U. after   10 cycles
 SCF Done:  E(RB3PW91) =  -687.761597784     A.U. after   14 cycles
 SCF Done:  E(RB3PW91) =  -687.782670760     A.U. after    7 cycles
 SCF Done:  E(RB3PW91) =  -687.781823516     A.U. after   14 cycles
 SCF Done:  E(RB3PW91) =  -687.782869137     A.U. after   11 cycles
 SCF Done:  E(RB3PW91) =  -687.782973298     A.U. after   12 cycles
 SCF Done:  E(RB3PW91) =  -687.782982237     A.U. after   12 cycles
 SCF Done:  E(RB3PW91) =  -687.782988025     A.U. after   12 cycles
 SCF Done:  E(RB3PW91) =  -687.782992726     A.U. after   11 cycles
 SCF Done:  E(RB3PW91) =  -687.782994536     A.U. after   11 cycles
 SCF Done:  E(RB3PW91) =  -687.782996946     A.U. after   12 cycles
 SCF Done:  E(RB3PW91) =  -687.782997597     A.U. after   11 cycles
 SCF Done:  E(RB3PW91) =  -687.782997702     A.U. after    9 cycles
 Optimization completed.
    -- Stationary point found.
 Normal termination of Gaussian 09 at Wed Dec 18 19:18:45 2024.

 ----------------------------------------------------------------------
 #N Geom=AllCheck Guess=TCheck SCRF=Check GenChk RB3PW91/6-31+G(d,p) Fr
 eq
 ----------------------------------------------------------------------

 Structure from the checkpoint file:  "B3PW91D3BJFA.chk"
 ----------
 [No Title]
 ----------
 Charge =  0 Multiplicity = 1

                         Standard orientation:
 ---------------------------------------------------------------------
 Center     Atomic      Atomic             Coordinates (Angstroms)
 Number     Number       Type             X           Y           Z
 ---------------------------------------------------------------------
      1          6           0        1.466537   -2.008737   -0.110306
      2          6           0        2.491933   -1.071025   -0.035770
      3          6           0        2.178297    0.300291    0.020910
      4          6           0        0.855267    0.712469    0.005139
      5          6           0       -0.188569   -0.232485   -0.062730
      6          6           0        0.140551   -1.594149   -0.124336
      7          8           0        3.781650   -1.473883   -0.023699
      8          6           0       -1.561273    0.254336   -0.068403
      9          6           0       -2.689304   -0.476117    0.033606
     10          8           0        3.274187    1.111958    0.088482
     11          6           0        3.062108    2.511160    0.160617
     12          6           0       -4.058362    0.076737    0.066395
     13          8           0       -4.997521   -0.537141    0.520036
     14          8           0       -4.250179    1.330286   -0.426957
     15          1           0        1.727938   -3.060385   -0.160843
     16          1           0        0.610394    1.768381    0.051902
     17          1           0       -0.642748   -2.341011   -0.193151
     18          1           0        4.340109   -0.683818    0.031201
     19          1           0       -1.645177    1.341480   -0.126475
     20          1           0       -2.659904   -1.550459    0.182193
     21          1           0        4.051926    2.964585    0.211864
     22          1           0        2.538682    2.874985   -0.731595
     23          1           0        2.491021    2.775256    1.058611
     24          1           0       -3.460457    1.626344   -0.897348
 ---------------------------------------------------------------------

 SCF Done:  E(RB3PW91) =  -687.782997702     A.U. after    1 cycles

 The electronic state is 1-A.
 Alpha  occ. eigenvalues --  -19.21438 -19.19807 -19.19387 -19.12977 -10.31025
 Alpha  occ. eigenvalues --  -10.26452 -10.26396 -10.25705 -10.22475 -10.21405
 Alpha  occ. eigenvalues --  -10.21069 -10.20471 -10.20331 -10.20063  -1.11889
 Alpha  occ. eigenvalues --   -1.10989  -1.08717  -1.02581  -0.89114  -0.82968
 Alpha  occ. eigenvalues --   -0.78848  -0.77243  -0.73182  -0.67847  -0.64070
 Alpha  occ. eigenvalues --   -0.62716  -0.60470  -0.58740  -0.55693  -0.53365
 Alpha  occ. eigenvalues --   -0.51881  -0.50552  -0.48676  -0.47340  -0.45759
 Alpha  occ. eigenvalues --   -0.45269  -0.44908  -0.44172  -0.43349  -0.41104
 Alpha  occ. eigenvalues --   -0.40568  -0.38446  -0.38385  -0.37662  -0.36773
 Alpha  occ. eigenvalues --   -0.36576  -0.32703  -0.30668  -0.28016  -0.26894
 Alpha  occ. eigenvalues --   -0.23070
 Alpha virt. eigenvalues --   -0.08110  -0.02742  -0.00804   0.00010   0.00347
 Alpha virt. eigenvalues --    0.01336   0.01991   0.03793   0.04100   0.04531
 Alpha virt. eigenvalues --    0.05432   0.05790   0.06446   0.06579   0.07735

 Mulliken charges:
               1
     1  C    0.349765
     2  C   -0.470035
     3  C    0.196354
     4  C   -0.222938
     5  C    0.335028
     6  C   -0.432982
     7  O   -0.498455
     8  C   -0.274589
     9  C    0.195873
    10  O   -0.406247
    11  C   -0.168443
    12  C    0.260877
    13  O   -0.437458
    14  O   -0.398495
    15  H    0.170094
    16  H    0.143830
    17  H    0.150121
    18  H    0.394510
    19  H    0.118185
    20  H    0.165630
    21  H    0.171134
    22  H    0.163453
    23  H    0.165421
    24  H    0.329367
 Sum of Mulliken charges =  -0.00000

 Dipole moment (field-independent basis, Debye):
    X=              6.5964    Y=              3.3562    Z=             -1.2321  Tot=              7.5030
 Quadrupole moment (field-independent basis, Debye-Ang):
   XX=           -113.2387   YY=            -70.8870   ZZ=            -83.9393
   XY=              7.2796   XZ=              6.5314   YZ=             -0.0607

  Exact polarizability: 235.778   3.015 136.541  -3.361  -2.065  75.674
 Approx polarizability: 356.746   7.528 214.721  -9.288  -5.302 112.171

                      1                      2                      3
                      A                      A                      A
 Frequencies --     27.6025                62.4304                78.4667
 Red. masses --      5.6970                 6.3207                 5.8415
 Frc consts  --      0.0026                 0.0145                 0.0212
 IR Inten    --      3.7585                 1.7577                 4.1987

                      4                      5                      6
                      A                      A                      A
 Frequencies --     79.8409               120.0595               168.1389
 Red. masses --      3.3349                 3.1784                 3.9003
 Frc consts  --      0.0125                 0.0270                 0.0650
 IR Inten    --      4.6271                 9.9534                 1.1673

                      7                      8                      9
                      A                      A                      A
 Frequencies --    200.2546               218.1977               230.8138
 Red. masses --      3.5300                 2.4141                 2.4501
 Frc consts  --      0.0834                 0.0677                 0.0769
 IR Inten    --      3.5155                 2.2416                 2.3528

                     10                     11                     12
                      A                      A                      A
 Frequencies --    286.4894               309.3604               356.5494
 Red. masses --      2.2311                 5.7545                 4.6122
 Frc consts  --      0.1079                 0.3245                 0.3455
 IR Inten    --      0.5201                 6.6081                 4.7027

                     13                     14                     15
                      A                      A                      A
 Frequencies --    374.5048               457.9011               468.4358
 Red. masses --      4.1414                 2.9355                 1.4210
 Frc consts  --      0.3422                 0.3626                 0.1837
 IR Inten    --      3.9331                10.1674                68.6331

                     16                     17                     18
                      A                      A                      A
 Frequencies --    492.5847               494.2608               524.2179
 Red. masses --      2.3097                 1.2107                 5.6711
 Frc consts  --      0.3302                 0.1743                 0.9182
 IR Inten    --      5.5310               121.6413                 3.8529

                     19                     20                     21
                      A                      A                      A
 Frequencies --    571.0611               581.6691               599.1139
 Red. masses --      4.2235                 6.4609                 3.8037
 Frc consts  --      0.8115                 1.2879                 0.8044
 IR Inten    --     12.8073                21.7523                 8.2394

                     22                     23                     24
                      A                      A                      A
 Frequencies --    650.9178               710.4992               729.4459
 Red. masses --      5.4500                 4.6781                 4.5737
 Frc consts  --      1.3605                 1.3914                 1.4338
 IR Inten    --      2.3603                 0.5084                 1.3245

                     25                     26                     27
                      A                      A                      A
 Frequencies --    785.0400               827.9111               829.8088
 Red. masses --      5.4884                 4.0599                 1.6022
 Frc consts  --      1.9929                 1.6396                 0.6500
 IR Inten    --      9.3905                15.4269                18.7913

                     28                     29                     30
                      A                      A                      A
 Frequencies --    849.9215               883.4647               926.1096
 Red. masses --      1.6459                 2.0406                 4.7710
 Frc consts  --      0.7005                 0.9384                 2.4109
 IR Inten    --     33.6652                 8.4424                38.8892

                     31                     32                     33
                      A                      A                      A
 Frequencies --    952.1433               966.5303               996.0127
 Red. masses --      1.3333                 3.3271                 1.1489
 Frc consts  --      0.7122                 1.8313                 0.6716
 IR Inten    --      2.6270                 9.8612                42.8514

                     34                     35                     36
                      A                      A                      A
 Frequencies --   1076.1688              1153.6331              1174.0523
 Red. masses --      3.8347                 1.5007                 1.2731
 Frc consts  --      2.6166                 1.1768                 1.0339
 IR Inten    --     38.2050                38.3660                 0.5411

                     37                     38                     39
                      A                      A                      A
 Frequencies --   1179.4654              1197.4038              1218.4733
 Red. masses --      1.5219                 1.5078                 1.5700
 Frc consts  --      1.2474                 1.2737                 1.3734
 IR Inten    --     50.9155                19.3869               141.5222

                     40                     41                     42
                      A                      A                      A
 Frequencies --   1230.5259              1269.4544              1301.3073
 Red. masses --      1.4058                 1.9266                 1.9917
 Frc consts  --      1.2542                 1.8292                 1.9872
 IR Inten    --     98.0662                56.9553                38.3878

                     43                     44                     45
                      A                      A                      A
 Frequencies --   1316.8175              1325.5678              1349.8455
 Red. masses --      2.4786                 1.9272                 2.0433
 Frc consts  --      2.5323                 1.9951                 2.1936
 IR Inten    --    526.7048               317.6888                98.8334

                     46                     47                     48
                      A                      A                      A
 Frequencies --   1363.8909              1434.3928              1469.4278
 Red. masses --      2.4854                 2.9963                 1.8522
 Frc consts  --      2.7240                 3.6322                 2.3563
 IR Inten    --     89.3660                23.7104                 5.9759

                     49                     50                     51
                      A                      A                      A
 Frequencies --   1491.5867              1493.8139              1507.7612
 Red. masses --      1.8110                 1.0438                 1.1105
 Frc consts  --      2.3739                 1.3723                 1.4875
 IR Inten    --     24.6902                10.9915                52.2314

                     52                     53                     54
                      A                      A                      A
 Frequencies --   1570.6678              1650.4935              1668.8313
 Red. masses --      3.8220                 6.0160                 6.5894
 Frc consts  --      5.5553                 9.6557                10.8124
 IR Inten    --    304.0327               176.9505                84.6378

                     55                     56                     57
                      A                      A                      A
 Frequencies --   1699.6055              1828.4088              3034.8106
 Red. masses --      5.8788                10.1957                 1.0336
 Frc consts  --     10.0054                20.0823                 5.6086
 IR Inten    --     54.7971               556.0016                45.7230

                     58                     59                     60
                      A                      A                      A
 Frequencies --   3109.3881              3134.5770              3178.0758
 Red. masses --      1.1068                 1.0882                 1.1013
 Frc consts  --      6.3046                 6.2996                 6.5538
 IR Inten    --     28.3879                21.4929                15.7619

                     61                     62                     63
                      A                      A                      A
 Frequencies --   3217.2396              3218.2215              3227.9953
 Red. masses --      1.0898                 1.0887                 1.0905
 Frc consts  --      6.6463                 6.6431                 6.6951
 IR Inten    --      4.9439                 4.9138                 0.9073

                     64                     65                     66
                      A                      A                      A
 Frequencies --   3234.2210              3789.3937              3838.5207
 Red. masses --      1.0947                 1.0652                 1.0655
 Frc consts  --      6.7465                 9.0116                 9.2496
 IR Inten    --      4.2905               160.0238                19.7754

 - Thermochemistry -
 -------------------
 Temperature   298.150 Kelvin.  Pressure   1.00000 Atm.
 Atom     1 has atomic number  6 and mass  12.00000

 Molecular mass:   194.05791 amu.
 Principal axes and moments of inertia in atomic units:
                           1         2         3
     Eigenvalues --  1171.649406307.599557401.85682
           X            0.99993   0.01174   0.00255
           Y           -0.01175   0.99993   0.00191
           Z           -0.00253  -0.00194   0.99999
 This molecule is an asymmetric top.
 Rotational symmetry number  1.
 Warning -- assumption of classical behavior for rotation
           may cause significant error
 Rotational temperatures (Kelvin)      0.07392     0.01373     0.01170
 Rotational constants (GHZ):           1.54034     0.28612     0.24382
 Zero-point vibrational energy     489056.1 (Joules/Mol)
                                  116.88721 (Kcal/Mol)
 Warning -- explicit consideration of  21 degrees of freedom as
           vibrations may cause significant error
 Vibrational temperatures:     39.71    89.82   112.90   114.87   172.74
          (Kelvin)            241.91   288.12   313.94   332.09   412.19
                              445.10   512.99   538.83   658.82   673.97
                              708.72   711.13   754.23   821.63   836.89
                              861.99   936.52  1022.25  1049.51  1129.50
                             1191.18  1193.91  1222.85  1271.11  1332.46
                             1369.92  1390.62  1433.04  1548.36  1659.82
                             1689.20  1696.99  1722.79  1753.11  1770.45
                             1826.46  1872.29  1894.60  1907.19  1942.12
                             1962.33  2063.77  2114.18  2146.06  2149.26
                             2169.33  2259.84  2374.69  2401.07  2445.35
                             2630.67  4366.41  4473.71  4509.95  4572.54
                             4628.88  4630.30  4644.36  4653.32  5452.09
                             5522.77

 Zero-point correction=                           0.186272 (Hartree/Particle)
 Thermal correction to Energy=                    0.199571
 Thermal correction to Enthalpy=                  0.200516
 Thermal correction to Gibbs Free Energy=         0.145110
 Sum of electronic and zero-point Energies=           -687.596726
 Sum of electronic and thermal Energies=              -687.583426
 Sum of electronic and thermal Enthalpies=            -687.582482
 Sum of electronic and thermal Free Energies=         -687.637888

                     E (Thermal)             CV                S
                      KCal/Mol        Cal/Mol-Kelvin    Cal/Mol-Kelvin
 Total                  125.233             49.322            116.611
 Electronic               0.000              0.000              0.000
 Translational            0.889              2.981             41.694
 Rotational               0.889              2.981             32.370
 Vibrational            123.456             43.360             42.547
 Vibration     1          0.593              1.984              5.995
 Vibration     2          0.597              1.972              4.379
 Vibration     3          0.600              1.964              3.929
 Vibration     4          0.600              1.963              3.895
 Vibration     5          0.609              1.933              3.099
 Vibration     6          0.625              1.882              2.456
 Vibration     7          0.638              1.840              2.131
 Vibration     8          0.646              1.813              1.974
 Vibration     9          0.653              1.794              1.873
 Vibration    10          0.684              1.699              1.495
 Vibration    11          0.699              1.656              1.366
 Vibration    12          0.732              1.562              1.137
 Vibration    13          0.746              1.524              1.061
 Vibration    14          0.816              1.343              0.772
 Vibration    15          0.826              1.320              0.742
 Vibration    16          0.848              1.266              0.677
 Vibration    17          0.850              1.263              0.673
 Vibration    18          0.879              1.196              0.600
 Vibration    19          0.927              1.094              0.502
 Vibration    20          0.938              1.071              0.482
 Vibration    21          0.957              1.034              0.451

 Optimization completed.
    -- Stationary point found.
 Normal termination of Gaussian 09 at Wed Dec 18 19:22:57 2024.
