 Gaussian 09, Revision E.01,
 Gaussian 09:  ES64L-G09RevE.01 30-Nov-2015

 -----------------------------------------
 # opt freq cam-b3lyp/6-31+g(d,p) em=gd3bj
 -----------------------------------------

 ----------
 [No Title]
 ----------
 Symbolic Z-matrix:
 Charge =  1 Multiplicity = 1

 SCF Done:  E(RCAM-B3LYP) =  -688.061111064     A.U. after   16 cycles
 SCF Done:  E(RCAM-B3LYP) =  -688.061592930     A.U. after   12 cycles
 SCF Done:  E(RCAM-B3LYP) =  -688.061622767     A.U. after   12 cycles
 SCF Done:  E(RCAM-B3LYP) =  -688.061628753     A.U. after   11 cycles
 SCF Done:  E(RCAM-B3LYP) =  -688.061632447     A.U. after   11 cycles
 SCF Done:  E(RCAM-B3LYP) =  -688.061636021     A.U. after   11 cycles
 SCF Done:  E(RCAM-B3LYP) =  -688.061639049     A.U. after   11 cycles
 SCF Done:  E(RCAM-B3LYP) =  -688.061639819     A.U. after   10 cycles
 Optimization completed.
    -- Stationary point found.
 Normal termination of Gaussian 09 at Tue May 28 18:08:35 2024.

 ----------------------------------------------------------------------
 #N Geom=AllCheck Guess=TCheck SCRF=Check GenChk RCAM-B3LYP/6-31+G(d,p)
  Freq
 ----------------------------------------------------------------------

 Structure from the checkpoint file:  "camb3lypFAyang.chk"
 ----------
 [No Title]
 ----------
 Charge =  1 Multiplicity = 1

                         Standard orientation:
 ---------------------------------------------------------------------
 Center     Atomic      Atomic             Coordinates (Angstroms)
 Number     Number       Type             X           Y           Z
 ---------------------------------------------------------------------
      1          6           0        1.470020   -2.024458   -0.021255
      2          6           0        2.504522   -1.083964   -0.010856
      3          6           0        2.220214    0.306428    0.004162
      4          6           0        0.916412    0.731371    0.010428
      5          6           0       -0.146092   -0.215874    0.002655
      6          6           0        0.163789   -1.596309   -0.016363
      7          8           0        3.762741   -1.497672   -0.016505
      8          6           0       -1.471220    0.267652    0.009845
      9          6           0       -2.638110   -0.477831    0.018813
     10          6           0       -3.879456    0.134908    0.000094
     11          8           0       -4.951557   -0.620701    0.091354
     12          8           0       -3.989368    1.444092   -0.116363
     13          8           0        3.333390    1.073722    0.010840
     14          6           0        3.190627    2.491575    0.027907
     15          1           0        1.728706   -3.076439   -0.035146
     16          1           0        0.681667    1.789043    0.022174
     17          1           0       -0.629054   -2.334299   -0.027239
     18          1           0        4.362578   -0.731571   -0.008606
     19          1           0       -1.585806    1.349537    0.007887
     20          1           0       -2.648840   -1.559005    0.040793
     21          1           0       -5.795592   -0.180001   -0.090027
     22          1           0       -4.865001    1.806071    0.086486
     23          1           0        4.201341    2.893591    0.031118
     24          1           0        2.660680    2.833988   -0.866054
     25          1           0        2.663447    2.812551    0.931418
 ---------------------------------------------------------------------

 SCF Done:  E(RCAM-B3LYP) =  -688.061639819     A.U. after    1 cycles

 The electronic state is 1-A.
 Alpha  occ. eigenvalues --  -19.47128 -19.46906 -19.40050 -19.39638 -10.60091
 Alpha  occ. eigenvalues --  -10.48466 -10.46695 -10.46368 -10.43378 -10.42658
 Alpha  occ. eigenvalues --  -10.42280 -10.41989 -10.41887 -10.40307  -1.40619
 Alpha  occ. eigenvalues --   -1.32573  -1.31060  -1.27830  -1.09915  -1.06028
 Alpha  occ. eigenvalues --   -0.99851  -0.98360  -0.93433  -0.90996  -0.88010
 Alpha  occ. eigenvalues --   -0.86006  -0.82723  -0.79626  -0.77670  -0.75026
 Alpha  occ. eigenvalues --   -0.72677  -0.72016  -0.71053  -0.69550  -0.67639
 Alpha  occ. eigenvalues --   -0.66100  -0.65121  -0.63641  -0.62708  -0.62597
 Alpha  occ. eigenvalues --   -0.62184  -0.60640  -0.59794  -0.58776  -0.57643
 Alpha  occ. eigenvalues --   -0.54835  -0.53994  -0.53883  -0.49764  -0.44189
 Alpha  occ. eigenvalues --   -0.40115
 Alpha virt. eigenvalues --   -0.20960  -0.13081  -0.09361  -0.09217  -0.07641
 Alpha virt. eigenvalues --   -0.06701  -0.06251  -0.05937  -0.04522  -0.04204
 Alpha virt. eigenvalues --   -0.03190  -0.03052  -0.02261  -0.01965  -0.01779

 Mulliken charges:
               1
     1  C    0.076123
     2  C   -0.068409
     3  C    0.339823
     4  C   -0.374483
     5  C    0.154070
     6  C   -0.209803
     7  O   -0.475127
     8  C    0.190994
     9  C   -0.732354
    10  C    1.029379
    11  O   -0.416202
    12  O   -0.468163
    13  O   -0.466917
    14  C   -0.128741
    15  H    0.183657
    16  H    0.151683
    17  H    0.148218
    18  H    0.416181
    19  H    0.174076
    20  H    0.171217
    21  H    0.394926
    22  H    0.399460
    23  H    0.182760
    24  H    0.163868
    25  H    0.163767
 Sum of Mulliken charges =   1.00000

 Dipole moment (field-independent basis, Debye):
    X=             -8.4380    Y=              3.6764    Z=              0.0620  Tot=              9.2043
 Quadrupole moment (field-independent basis, Debye-Ang):
   XX=              8.2067   YY=            -62.5024   ZZ=            -83.1106
   XY=             -2.7214   XZ=              0.3094   YZ=              1.0372

  Exact polarizability: 308.683 -20.197 131.345  -0.437   0.029  68.699
 Approx polarizability: 334.016 -30.647 161.629  -0.814  -0.235  87.671

                      1                      2                      3
                      A                      A                      A
 Frequencies --     47.5812                60.1816                85.2400
 Red. masses --      6.5801                 5.7892                 5.1472
 Frc consts  --      0.0088                 0.0124                 0.0220
 IR Inten    --      0.6636                 2.0565                 0.9931

                      4                      5                      6
                      A                      A                      A
 Frequencies --     91.4696               141.5570               172.7132
 Red. masses --      3.2900                 4.8060                 2.3939
 Frc consts  --      0.0162                 0.0567                 0.0421
 IR Inten    --      5.6802                 8.7535                36.7250

                      7                      8                      9
                      A                      A                      A
 Frequencies --    195.8499               221.7807               231.4250
 Red. masses --      3.4921                 1.2379                 5.5316
 Frc consts  --      0.0789                 0.0359                 0.1745
 IR Inten    --     10.9936                60.7545                 1.8811

                     10                     11                     12
                      A                      A                      A
 Frequencies --    258.7771               313.2996               326.5131
 Red. masses --      1.4607                 5.8055                 3.3643
 Frc consts  --      0.0576                 0.3357                 0.2113
 IR Inten    --     70.7633                 0.0444                11.1117

                     13                     14                     15
                      A                      A                      A
 Frequencies --    358.5567               374.8087               433.1463
 Red. masses --      4.6779                 2.1756                 1.1768
 Frc consts  --      0.3543                 0.1801                 0.1301
 IR Inten    --     10.9391                18.7900               272.2659

                     16                     17                     18
                      A                      A                      A
 Frequencies --    465.8709               501.9640               533.1890
 Red. masses --      3.1791                 5.7792                 5.2910
 Frc consts  --      0.4065                 0.8580                 0.8862
 IR Inten    --      0.3912                19.8145                20.6955

                     19                     20                     21
                      A                      A                      A
 Frequencies --    571.1489               581.9607               591.8720
 Red. masses --      4.6787                 2.7413                 3.8037
 Frc consts  --      0.8992                 0.5470                 0.7851
 IR Inten    --     46.5080                41.0146                10.0330

                     22                     23                     24
                      A                      A                      A
 Frequencies --    608.4513               639.7794               708.2208
 Red. masses --      1.2320                 4.6336                 5.1174
 Frc consts  --      0.2687                 1.1175                 1.5123
 IR Inten    --     88.0098                11.6180                 3.4839

                     25                     26                     27
                      A                      A                      A
 Frequencies --    730.1728               792.3399               845.1079
 Red. masses --      5.2331                 5.6020                 5.2237
 Frc consts  --      1.6438                 2.0721                 2.1981
 IR Inten    --      1.2279                18.2921                 2.1079

                     28                     29                     30
                      A                      A                      A
 Frequencies --    849.9727               874.1436               894.4603
 Red. masses --      1.5268                 1.5445                 1.3848
 Frc consts  --      0.6499                 0.6953                 0.6528
 IR Inten    --     10.9548                58.4641                17.1892

                     31                     32                     33
                      A                      A                      A
 Frequencies --    973.8240               991.4728              1010.2357
 Red. masses --      3.4270                 1.3142                 5.1722
 Frc consts  --      1.9148                 0.7611                 3.1101
 IR Inten    --     77.0896                 1.2564               137.8420

                     34                     35                     36
                      A                      A                      A
 Frequencies --   1027.2144              1071.6320              1132.8283
 Red. masses --      1.3376                 4.0313                 1.1333
 Frc consts  --      0.8316                 2.7277                 0.8569
 IR Inten    --     22.4848                54.1618               183.2195

                     37                     38                     39
                      A                      A                      A
 Frequencies --   1158.5203              1168.9598              1184.5482
 Red. masses --      1.5465                 1.4718                 1.2682
 Frc consts  --      1.2230                 1.1850                 1.0484
 IR Inten    --   1255.4484               605.9554                 0.9282

                     40                     41                     42
                      A                      A                      A
 Frequencies --   1208.4730              1233.9927              1248.4935
 Red. masses --      1.3800                 1.2961                 1.4921
 Frc consts  --      1.1874                 1.1628                 1.3703
 IR Inten    --     40.1572               181.5387                41.4029

                     43                     44                     45
                      A                      A                      A
 Frequencies --   1290.5454              1318.0712              1353.8848
 Red. masses --      1.9613                 1.9630                 2.0079
 Frc consts  --      1.9246                 2.0093                 2.1685
 IR Inten    --     33.8909               205.3421               113.7447

                     46                     47                     48
                      A                      A                      A
 Frequencies --   1361.3423              1388.5554              1447.7998
 Red. masses --      1.6636                 3.9298                 3.4347
 Frc consts  --      1.8165                 4.4642                 4.2419
 IR Inten    --    379.7486               463.0872               400.3308

                     49                     50                     51
                      A                      A                      A
 Frequencies --   1489.2221              1498.2465              1508.0507
 Red. masses --      1.6975                 2.3253                 1.0435
 Frc consts  --      2.2181                 3.0754                 1.3982
 IR Inten    --     99.8739               248.4202                15.2631

                     52                     53                     54
                      A                      A                      A
 Frequencies --   1511.8808              1522.9661              1586.4547
 Red. masses --      1.1715                 3.8157                 3.9118
 Frc consts  --      1.5777                 5.2144                 5.8008
 IR Inten    --     90.3622               108.5371              1365.1779

                     55                     56                     57
                      A                      A                      A
 Frequencies --   1629.6183              1644.4951              1655.8561
 Red. masses --      4.4639                 4.5947                 5.4993
 Frc consts  --      6.9845                 7.3211                 8.8839
 IR Inten    --   1640.7084                25.9188               347.9872

                     58                     59                     60
                      A                      A                      A
 Frequencies --   1705.8408              3065.5161              3144.0868
 Red. masses --      6.0460                 1.0336                 1.1086
 Frc consts  --     10.3657                 5.7226                 6.4570
 IR Inten    --    235.2061                23.2163                16.7992

                     61                     62                     63
                      A                      A                      A
 Frequencies --   3204.1397              3209.7358              3242.3789
 Red. masses --      1.0906                 1.1031                 1.0898
 Frc consts  --      6.5972                 6.6956                 6.7505
 IR Inten    --      0.2793                 3.8082                 1.2798

                     64                     65                     66
                      A                      A                      A
 Frequencies --   3243.0806              3255.5901              3270.7738
 Red. masses --      1.0917                 1.0971                 1.0914
 Frc consts  --      6.7650                 6.8508                 6.8792
 IR Inten    --      2.3727                 0.6812                 2.7098

                     67                     68                     69
                      A                      A                      A
 Frequencies --   3751.5777              3811.1330              3822.1520
 Red. masses --      1.0651                 1.0682                 1.0664
 Frc consts  --      8.8323                 9.1412                 9.1789
 IR Inten    --    385.3760                85.8342               736.8148

 - Thermochemistry -
 -------------------
 Temperature   298.150 Kelvin.  Pressure   1.00000 Atm.
 Atom     1 has atomic number  6 and mass  12.00000

 Molecular mass:   195.06573 amu.
 Principal axes and moments of inertia in atomic units:
                           1         2         3
     Eigenvalues --  1166.759516280.839377433.08053
           X            0.99994   0.01082   0.00014
           Y           -0.01082   0.99994   0.00183
           Z           -0.00012  -0.00183   1.00000
 This molecule is an asymmetric top.
 Rotational symmetry number  1.
 Warning -- assumption of classical behavior for rotation
           may cause significant error
 Rotational temperatures (Kelvin)      0.07423     0.01379     0.01165
 Rotational constants (GHZ):           1.54680     0.28734     0.24280
 Zero-point vibrational energy     525428.2 (Joules/Mol)
                                  125.58036 (Kcal/Mol)
 Warning -- explicit consideration of  22 degrees of freedom as
           vibrations may cause significant error
 Vibrational temperatures:     68.46    86.59   122.64   131.60   203.67
          (Kelvin)            248.50   281.78   319.09   332.97   372.32
                              450.77   469.78   515.88   539.27   623.20
                              670.28   722.21   767.14   821.75   837.31
                              851.57   875.42   920.50  1018.97  1050.55
                             1140.00  1215.92  1222.92  1257.70  1286.93
                             1401.11  1426.51  1453.50  1477.93  1541.84
                             1629.89  1666.85  1681.87  1704.30  1738.72
                             1775.44  1796.30  1856.80  1896.41  1947.94
                             1958.67  1997.82  2083.06  2142.66  2155.64
                             2169.75  2175.26  2191.21  2282.55  2344.65
                             2366.06  2382.40  2454.32  4410.59  4523.63
                             4610.04  4618.09  4665.05  4666.06  4684.06
                             4705.91  5397.68  5483.36  5499.22

 Zero-point correction=                           0.200125 (Hartree/Particle)
 Thermal correction to Energy=                    0.213634
 Thermal correction to Enthalpy=                  0.214578
 Thermal correction to Gibbs Free Energy=         0.159471
 Sum of electronic and zero-point Energies=           -687.861515
 Sum of electronic and thermal Energies=              -687.848006
 Sum of electronic and thermal Enthalpies=            -687.847061
 Sum of electronic and thermal Free Energies=         -687.902168

                     E (Thermal)             CV                S
                      KCal/Mol        Cal/Mol-Kelvin    Cal/Mol-Kelvin
 Total                  134.057             50.558            115.982
 Electronic               0.000              0.000              0.000
 Translational            0.889              2.981             41.710
 Rotational               0.889              2.981             32.366
 Vibrational            132.280             44.597             41.907
 Vibration     1          0.595              1.978              4.915
 Vibration     2          0.597              1.973              4.451
 Vibration     3          0.601              1.959              3.766
 Vibration     4          0.602              1.955              3.628
 Vibration     5          0.615              1.912              2.783
 Vibration     6          0.626              1.876              2.406
 Vibration     7          0.636              1.846              2.172
 Vibration     8          0.648              1.808              1.945
 Vibration     9          0.653              1.793              1.868
 Vibration    10          0.668              1.748              1.670
 Vibration    11          0.701              1.648              1.345
 Vibration    12          0.710              1.622              1.277
 Vibration    13          0.733              1.558              1.128
 Vibration    14          0.746              1.524              1.060
 Vibration    15          0.794              1.398              0.848
 Vibration    16          0.823              1.326              0.749
 Vibration    17          0.857              1.246              0.653
 Vibration    18          0.888              1.177              0.580
 Vibration    19          0.927              1.094              0.502
 Vibration    20          0.939              1.070              0.482
 Vibration    21          0.949              1.049              0.464
 Vibration    22          0.967              1.014              0.435

 Optimization completed.
    -- Stationary point found.
 Normal termination of Gaussian 09 at Tue May 28 18:15:08 2024.
