 Gaussian 09, Revision E.01,
 Gaussian 09:  ES64L-G09RevE.01 30-Nov-2015

 -----------------------------------------
 # opt freq cam-b3lyp/6-31+g(d,p) em=gd3bj
 -----------------------------------------

 ----------
 [No Title]
 ----------
 Symbolic Z-matrix:
 Charge =  0 Multiplicity = 1

 SCF Done:  E(RCAM-B3LYP) =  -687.708919563     A.U. after   17 cycles
 SCF Done:  E(RCAM-B3LYP) =  -687.709439167     A.U. after   12 cycles
 SCF Done:  E(RCAM-B3LYP) =  -687.709470350     A.U. after   12 cycles
 SCF Done:  E(RCAM-B3LYP) =  -687.709472493     A.U. after   11 cycles
 SCF Done:  E(RCAM-B3LYP) =  -687.709471478     A.U. after   10 cycles
 SCF Done:  E(RCAM-B3LYP) =  -687.709473104     A.U. after   10 cycles
 Optimization completed.
    -- Stationary point found.
 Normal termination of Gaussian 09 at Tue May 28 17:09:12 2024.

 ----------------------------------------------------------------------
 #N Geom=AllCheck Guess=TCheck SCRF=Check GenChk RCAM-B3LYP/6-31+G(d,p)
  Freq
 ----------------------------------------------------------------------

 Structure from the checkpoint file:  "camb3lypFA.chk"
 ----------
 [No Title]
 ----------
 Charge =  0 Multiplicity = 1

                         Standard orientation:
 ---------------------------------------------------------------------
 Center     Atomic      Atomic             Coordinates (Angstroms)
 Number     Number       Type             X           Y           Z
 ---------------------------------------------------------------------
      1          6           0        1.456105   -2.009174   -0.000044
      2          6           0        2.484876   -1.079462   -0.000045
      3          6           0        2.183110    0.290735   -0.000032
      4          6           0        0.865316    0.711345   -0.000018
      5          6           0       -0.182478   -0.225419   -0.000015
      6          6           0        0.133815   -1.585962   -0.000027
      7          8           0        3.773374   -1.490981   -0.000060
      8          6           0       -1.557980    0.274875   -0.000006
      9          6           0       -2.684778   -0.448858   -0.000028
     10          8           0        3.284825    1.098923   -0.000048
     11          6           0        3.090778    2.502050    0.000221
     12          6           0       -4.068588    0.076771    0.000006
     13          8           0       -5.027754   -0.655325    0.000311
     14          8           0       -4.259313    1.418809   -0.000236
     15          1           0        1.709510   -3.063139   -0.000049
     16          1           0        0.630369    1.769396   -0.000011
     17          1           0       -0.653594   -2.330231   -0.000020
     18          1           0        4.345569   -0.709108   -0.000042
     19          1           0       -1.618672    1.363943    0.000045
     20          1           0       -2.661688   -1.532275   -0.000021
     21          1           0        4.085323    2.945480    0.000311
     22          1           0        2.547951    2.822018   -0.895704
     23          1           0        2.547936    2.821668    0.896263
     24          1           0       -3.422823    1.899441   -0.000583
 ---------------------------------------------------------------------

 SCF Done:  E(RCAM-B3LYP) =  -687.709473104     A.U. after    1 cycles

 The electronic state is 1-A.
 Alpha  occ. eigenvalues --  -19.29271 -19.28003 -19.27652 -19.21548 -10.40473
 Alpha  occ. eigenvalues --  -10.35012 -10.34906 -10.34376 -10.31476 -10.29907
 Alpha  occ. eigenvalues --  -10.29643 -10.29209 -10.28838 -10.28488  -1.19335
 Alpha  occ. eigenvalues --   -1.19207  -1.15946  -1.10569  -0.97241  -0.91048
 Alpha  occ. eigenvalues --   -0.86521  -0.85015  -0.80712  -0.75302  -0.71360
 Alpha  occ. eigenvalues --   -0.70257  -0.67738  -0.65644  -0.62809  -0.60369
 Alpha  occ. eigenvalues --   -0.58727  -0.57517  -0.55455  -0.54036  -0.52541
 Alpha  occ. eigenvalues --   -0.52369  -0.51712  -0.50943  -0.50090  -0.47522
 Alpha  occ. eigenvalues --   -0.47025  -0.45195  -0.44938  -0.43816  -0.43025
 Alpha  occ. eigenvalues --   -0.42909  -0.39253  -0.36562  -0.34801  -0.32147
 Alpha  occ. eigenvalues --   -0.27891
 Alpha virt. eigenvalues --   -0.03686   0.00774   0.01768   0.02072   0.03064
 Alpha virt. eigenvalues --    0.03827   0.04661   0.05621   0.06395   0.06405
 Alpha virt. eigenvalues --    0.07648   0.07706   0.08131   0.09491   0.09563

 Mulliken charges:
               1
     1  C    0.131294
     2  C   -0.089693
     3  C    0.307757
     4  C   -0.574060
     5  C    0.196179
     6  C   -0.280015
     7  O   -0.540571
     8  C   -0.010310
     9  C    0.125758
    10  O   -0.470857
    11  C   -0.139067
    12  C    0.400055
    13  O   -0.459798
    14  O   -0.434498
    15  H    0.154013
    16  H    0.123272
    17  H    0.131119
    18  H    0.396004
    19  H    0.084378
    20  H    0.146496
    21  H    0.159517
    22  H    0.153969
    23  H    0.153970
    24  H    0.335090
 Sum of Mulliken charges =  -0.00000

 Dipole moment (field-independent basis, Debye):
    X=              6.4651    Y=              3.9099    Z=             -0.0006  Tot=              7.5555
 Quadrupole moment (field-independent basis, Debye-Ang):
   XX=           -116.8474   YY=            -71.4418   ZZ=            -85.1532
   XY=              5.8405   XZ=              0.0057   YZ=              0.0001

  Exact polarizability: 222.262   5.981 136.486  -0.002  -0.001  73.075
 Approx polarizability: 235.694  10.413 168.927  -0.004  -0.003  92.259

 ******    2 imaginary frequencies (negative Signs) ******

                      1                      2                      3
                      A                      A                      A
 Frequencies --    -81.2816               -14.8179                70.2967
 Red. masses --      2.2265                 4.7240                 4.8836
 Frc consts  --      0.0087                 0.0006                 0.0142
 IR Inten    --     18.2111                 2.5258                 6.8547

                      4                      5                      6
                      A                      A                      A
 Frequencies --     77.7097                86.2049               169.4093
 Red. masses --      3.7410                 6.0811                 4.3770
 Frc consts  --      0.0133                 0.0266                 0.0740
 IR Inten    --      1.0163                 4.0936                 0.6934

                      7                      8                      9
                      A                      A                      A
 Frequencies --    201.9289               216.6826               236.1679
 Red. masses --      3.8797                 1.5396                 7.2482
 Frc consts  --      0.0932                 0.0426                 0.2382
 IR Inten    --      4.3227                 0.0917                 6.8507

                     10                     11                     12
                      A                      A                      A
 Frequencies --    282.0286               308.7608               361.9858
 Red. masses --      2.0838                 6.2414                 2.9694
 Frc consts  --      0.0977                 0.3506                 0.2292
 IR Inten    --      0.0417                 7.8414                13.1241

                     13                     14                     15
                      A                      A                      A
 Frequencies --    363.8163               393.0647               462.6253
 Red. masses --      4.6476                 1.4669                 2.5142
 Frc consts  --      0.3624                 0.1335                 0.3170
 IR Inten    --      3.9626                73.5362                24.8027

                     16                     17                     18
                      A                      A                      A
 Frequencies --    487.1585               492.8561               534.0745
 Red. masses --      1.1818                 5.2764                 6.0439
 Frc consts  --      0.1652                 0.7551                 1.0157
 IR Inten    --     93.4979                 0.8034                 1.8790

                     19                     20                     21
                      A                      A                      A
 Frequencies --    582.4089               590.5810               592.3381
 Red. masses --      4.0626                 7.2783                 3.7654
 Frc consts  --      0.8119                 1.4957                 0.7784
 IR Inten    --      9.0283                29.8554                10.6674

                     22                     23                     24
                      A                      A                      A
 Frequencies --    663.6750               711.2503               735.7817
 Red. masses --      5.6123                 4.9052                 4.5508
 Frc consts  --      1.4565                 1.4620                 1.4516
 IR Inten    --      3.3253                 0.0379                 0.1399

                     25                     26                     27
                      A                      A                      A
 Frequencies --    789.4294               836.7611               849.6520
 Red. masses --      5.7733                 5.2817                 1.4553
 Frc consts  --      2.1198                 2.1788                 0.6190
 IR Inten    --      9.6894                15.0429                24.9906

                     28                     29                     30
                      A                      A                      A
 Frequencies --    871.6832               907.8548               933.9766
 Red. masses --      1.6131                 2.0074                 5.0871
 Frc consts  --      0.7222                 0.9748                 2.6145
 IR Inten    --     29.3596                 0.2909                33.7596

                     31                     32                     33
                      A                      A                      A
 Frequencies --    974.3813               975.3499              1007.8057
 Red. masses --      3.5733                 1.3231                 1.1278
 Frc consts  --      1.9988                 0.7416                 0.6749
 IR Inten    --      6.4546                 6.1174                41.3169

                     34                     35                     36
                      A                      A                      A
 Frequencies --   1088.2932              1164.7566              1185.9875
 Red. masses --      3.7708                 1.4639                 1.2715
 Frc consts  --      2.6314                 1.1701                 1.0538
 IR Inten    --     39.0461                32.9084                 0.8377

                     37                     38                     39
                      A                      A                      A
 Frequencies --   1187.0851              1205.5173              1230.8369
 Red. masses --      1.4610                 1.5436                 1.6466
 Frc consts  --      1.2130                 1.3217                 1.4697
 IR Inten    --     45.3896                13.7310               179.9895

                     40                     41                     42
                      A                      A                      A
 Frequencies --   1239.9457              1277.7017              1314.9141
 Red. masses --      1.3995                 2.4847                 1.9765
 Frc consts  --      1.2678                 2.3899                 2.0135
 IR Inten    --     67.4865                74.0537               118.8367

                     43                     44                     45
                      A                      A                      A
 Frequencies --   1328.0039              1341.2234              1359.5140
 Red. masses --      2.1156                 2.0268                 5.5901
 Frc consts  --      2.1983                 2.1481                 6.0874
 IR Inten    --    263.8887               383.5588               225.9520

                     46                     47                     48
                      A                      A                      A
 Frequencies --   1378.9234              1428.7060              1484.2628
 Red. masses --      1.3918                 2.6214                 1.7489
 Frc consts  --      1.5592                 3.1526                 2.2701
 IR Inten    --     13.2184                73.9626                 4.0864

                     49                     50                     51
                      A                      A                      A
 Frequencies --   1505.3153              1505.7687              1518.1089
 Red. masses --      1.8241                 1.0439                 1.1113
 Frc consts  --      2.4354                 1.3945                 1.5091
 IR Inten    --     20.3170                11.1573                51.3066

                     52                     53                     54
                      A                      A                      A
 Frequencies --   1589.5200              1678.2399              1693.6644
 Red. masses --      3.7574                 6.2720                 6.6839
 Frc consts  --      5.5934                10.4079                11.2963
 IR Inten    --    295.4421               159.4242                53.4874

                     55                     56                     57
                      A                      A                      A
 Frequencies --   1737.6499              1854.7982              3052.9014
 Red. masses --      5.9203                10.1058                 1.0339
 Frc consts  --     10.5321                20.4840                 5.6777
 IR Inten    --     60.2464               590.3795                40.0351

                     58                     59                     60
                      A                      A                      A
 Frequencies --   3123.7876              3145.0591              3189.4448
 Red. masses --      1.1074                 1.0886                 1.1019
 Frc consts  --      6.3670                 6.3442                 6.6041
 IR Inten    --     26.7048                31.1620                14.6742

                     61                     62                     63
                      A                      A                      A
 Frequencies --   3230.3304              3231.9287              3241.8736
 Red. masses --      1.0892                 1.0906                 1.0934
 Frc consts  --      6.6968                 6.7116                 6.7708
 IR Inten    --      4.7566                 4.9062                 0.3733

                     64                     65                     66
                      A                      A                      A
 Frequencies --   3248.6831              3807.2765              3869.3573
 Red. masses --      1.0925                 1.0652                 1.0655
 Frc consts  --      6.7936                 9.0970                 9.3991
 IR Inten    --      3.1677               167.5868                26.0718

 - Thermochemistry -
 -------------------
 Temperature   298.150 Kelvin.  Pressure   1.00000 Atm.
 Atom     1 has atomic number  6 and mass  12.00000

 Molecular mass:   194.05791 amu.
 Principal axes and moments of inertia in atomic units:
                           1         2         3
     Eigenvalues --  1161.590106306.050397456.08352
           X            0.99994   0.01123   0.00000
           Y           -0.01123   0.99994  -0.00001
           Z           -0.00000   0.00001   1.00000
 This molecule is an asymmetric top.
 Rotational symmetry number  1.
 Warning -- assumption of classical behavior for rotation
           may cause significant error
 Rotational temperatures (Kelvin)      0.07456     0.01374     0.01162
 Rotational constants (GHZ):           1.55368     0.28619     0.24205
    2 imaginary frequencies ignored.
 Zero-point vibrational energy     491707.5 (Joules/Mol)
                                  117.52092 (Kcal/Mol)
 Warning -- explicit consideration of  19 degrees of freedom as
           vibrations may cause significant error
 Vibrational temperatures:    101.14   111.81   124.03   243.74   290.53
          (Kelvin)            311.76   339.79   405.78   444.24   520.82
                              523.45   565.53   665.61   700.91   709.11
                              768.41   837.96   849.71   852.24   954.88
                             1023.33  1058.62  1135.81  1203.91  1222.46
                             1254.16  1306.20  1343.78  1401.92  1403.31
                             1450.01  1565.81  1675.82  1706.37  1707.95
                             1734.47  1770.90  1784.00  1838.33  1891.87
                             1910.70  1929.72  1956.04  1983.96  2055.59
                             2135.52  2165.81  2166.46  2184.22  2286.96
                             2414.61  2436.80  2500.09  2668.64  4392.44
                             4494.43  4525.03  4588.89  4647.72  4650.02
                             4664.33  4674.12  5477.81  5567.14

 Zero-point correction=                           0.187282 (Hartree/Particle)
 Thermal correction to Energy=                    0.198985
 Thermal correction to Enthalpy=                  0.199929
 Thermal correction to Gibbs Free Energy=         0.148985
 Sum of electronic and zero-point Energies=           -687.522192
 Sum of electronic and thermal Energies=              -687.510489
 Sum of electronic and thermal Enthalpies=            -687.509544
 Sum of electronic and thermal Free Energies=         -687.560488

                     E (Thermal)             CV                S
                      KCal/Mol        Cal/Mol-Kelvin    Cal/Mol-Kelvin
 Total                  124.865             45.197            107.221
 Electronic               0.000              0.000              0.000
 Translational            0.889              2.981             41.694
 Rotational               0.889              2.981             32.368
 Vibrational            123.087             39.235             33.158
 Vibration     1          0.598              1.968              4.145
 Vibration     2          0.599              1.964              3.948
 Vibration     3          0.601              1.959              3.744
 Vibration     4          0.625              1.880              2.442
 Vibration     5          0.639              1.837              2.115
 Vibration     6          0.646              1.816              1.987
 Vibration     7          0.655              1.785              1.832
 Vibration     8          0.681              1.707              1.521
 Vibration     9          0.698              1.657              1.369
 Vibration    10          0.736              1.551              1.114
 Vibration    11          0.737              1.547              1.106
 Vibration    12          0.760              1.485              0.988
 Vibration    13          0.820              1.333              0.759
 Vibration    14          0.843              1.279              0.691
 Vibration    15          0.849              1.266              0.676
 Vibration    16          0.889              1.175              0.578
 Vibration    17          0.939              1.069              0.481
 Vibration    18          0.948              1.052              0.466
 Vibration    19          0.950              1.048              0.463

 Optimization completed.
    -- Stationary point found.
 Normal termination of Gaussian 09 at Tue May 28 17:15:06 2024.
