 Gaussian 09, Revision E.01,
 Gaussian 09:  ES64L-G09RevE.01 30-Nov-2015

 --------------------------------------
 # opt freq pbepbe/6-31+g(d,p) em=gd3bj
 --------------------------------------

 ----------
 [No Title]
 ----------
 Symbolic Z-matrix:
 Charge =  0 Multiplicity = 1

 SCF Done:  E(RPBE-PBE) =  -687.248583805     A.U. after   17 cycles
 SCF Done:  E(RPBE-PBE) =  -687.249796138     A.U. after   13 cycles
 SCF Done:  E(RPBE-PBE) =  -687.249832097     A.U. after   11 cycles
 SCF Done:  E(RPBE-PBE) =  -687.249837332     A.U. after   11 cycles
 Optimization completed.
    -- Stationary point found.
 Normal termination of Gaussian 09 at Thu Jun 20 12:01:45 2024.

 ----------------------------------------------------------------------
 #N Geom=AllCheck Guess=TCheck SCRF=Check GenChk RPBEPBE/6-31+G(d,p) Fr
 eq
 ----------------------------------------------------------------------

 Structure from the checkpoint file:  "pbeFAgd3.chk"
 ----------
 [No Title]
 ----------
 Charge =  0 Multiplicity = 1

                         Standard orientation:
 ---------------------------------------------------------------------
 Center     Atomic      Atomic             Coordinates (Angstroms)
 Number     Number       Type             X           Y           Z
 ---------------------------------------------------------------------
      1          6           0        1.490074   -2.028040   -0.000345
      2          6           0        2.517008   -1.074448   -0.000353
      3          6           0        2.192217    0.305982   -0.000182
      4          6           0        0.858389    0.711673   -0.000006
      5          6           0       -0.188927   -0.248000   -0.000000
      6          6           0        0.154412   -1.619939   -0.000169
      7          8           0        3.820300   -1.472380   -0.000522
      8          6           0       -1.563170    0.235870    0.000188
      9          6           0       -2.702671   -0.508646    0.000155
     10          6           0       -4.051927    0.063504    0.000366
     11          8           0       -5.089950   -0.599620    0.000322
     12          8           0       -4.080050    1.440402    0.000592
     13          8           0        3.297226    1.128861   -0.000212
     14          6           0        3.067759    2.540660    0.000045
     15          1           0        1.761025   -3.086956   -0.000471
     16          1           0        0.601342    1.774029    0.000127
     17          1           0       -0.630849   -2.379709   -0.000156
     18          1           0        4.369400   -0.659720   -0.000486
     19          1           0       -1.681390    1.326486    0.000373
     20          1           0       -2.692245   -1.601553   -0.000034
     21          1           0       -5.032693    1.671010    0.000696
     22          1           0        4.062223    3.006221    0.000021
     23          1           0        2.511910    2.850348   -0.903332
     24          1           0        2.512092    2.850047    0.903638
 ---------------------------------------------------------------------

 SCF Done:  E(RPBE-PBE) =  -687.249837332     A.U. after    1 cycles

 The electronic state is 1-A.
 Alpha  occ. eigenvalues --  -18.84670 -18.83194 -18.82262 -18.76514 -10.02336
 Alpha  occ. eigenvalues --   -9.98383  -9.98306  -9.97900  -9.93331  -9.93216
 Alpha  occ. eigenvalues --   -9.92964  -9.92331  -9.92249  -9.91797  -1.01554
 Alpha  occ. eigenvalues --   -1.00592  -0.98685  -0.91873  -0.79770  -0.73913
 Alpha  occ. eigenvalues --   -0.70555  -0.69049  -0.65451  -0.60689  -0.57004
 Alpha  occ. eigenvalues --   -0.55195  -0.52794  -0.51980  -0.48466  -0.45947
 Alpha  occ. eigenvalues --   -0.44246  -0.44089  -0.42338  -0.41405  -0.41187
 Alpha  occ. eigenvalues --   -0.39468  -0.39119  -0.38430  -0.37448  -0.35758
 Alpha  occ. eigenvalues --   -0.34390  -0.33704  -0.32968  -0.32298  -0.31465
 Alpha  occ. eigenvalues --   -0.31296  -0.27421  -0.25999  -0.23050  -0.22817
 Alpha  occ. eigenvalues --   -0.19642
 Alpha virt. eigenvalues --   -0.10007  -0.04916  -0.02576  -0.02143  -0.02031
 Alpha virt. eigenvalues --   -0.00779   0.00164   0.01326   0.02307   0.02408
 Alpha virt. eigenvalues --    0.03370   0.03785   0.03856   0.04791   0.04921

 Mulliken charges:
               1
     1  C    0.176476
     2  C   -0.398360
     3  C    0.277749
     4  C   -0.247148
     5  C    0.266576
     6  C   -0.421861
     7  O   -0.462191
     8  C    0.035707
     9  C   -0.359137
    10  C    0.592386
    11  O   -0.447667
    12  O   -0.455512
    13  O   -0.375551
    14  C   -0.202908
    15  H    0.157972
    16  H    0.136299
    17  H    0.138583
    18  H    0.384340
    19  H    0.158252
    20  H    0.147138
    21  H    0.374180
    22  H    0.174474
    23  H    0.175101
    24  H    0.175100
 Sum of Mulliken charges =  -0.00000

 Dipole moment (field-independent basis, Debye):
    X=              4.2727    Y=              3.6059    Z=              0.0002  Tot=              5.5910
 Quadrupole moment (field-independent basis, Debye-Ang):
   XX=            -92.0760   YY=            -72.3192   ZZ=            -85.3960
   XY=              0.7237   XZ=              0.0004   YZ=              0.0014

  Exact polarizability: 268.867  -0.694 147.083  -0.017   0.009  76.131
 Approx polarizability: 563.821   0.482 282.656  -0.037   0.019 125.630

                      1                      2                      3
                      A                      A                      A
 Frequencies --     31.4892                63.0923                80.1433
 Red. masses --      6.9583                 6.0565                 5.9142
 Frc consts  --      0.0041                 0.0142                 0.0224
 IR Inten    --      0.7368                 0.0983                 0.4752

                      4                      5                      6
                      A                      A                      A
 Frequencies --     82.6705               125.2728               166.7866
 Red. masses --      3.3430                 3.6434                 3.2253
 Frc consts  --      0.0135                 0.0337                 0.0529
 IR Inten    --      4.2787                 0.0619                 0.6015

                      7                      8                      9
                      A                      A                      A
 Frequencies --    192.5185               218.0288               220.1614
 Red. masses --      3.9633                 7.3371                 1.4510
 Frc consts  --      0.0865                 0.2055                 0.0414
 IR Inten    --      3.4937                 0.7494                 0.1976

                     10                     11                     12
                      A                      A                      A
 Frequencies --    281.4574               296.2300               348.1040
 Red. masses --      2.2829                 6.4001                 4.7999
 Frc consts  --      0.1066                 0.3309                 0.3427
 IR Inten    --      0.0018                 3.7273                 4.6198

                     13                     14                     15
                      A                      A                      A
 Frequencies --    358.9880               440.7789               474.0437
 Red. masses --      4.0102                 3.1405                 5.5070
 Frc consts  --      0.3045                 0.3595                 0.7291
 IR Inten    --      0.2308                 3.2394                16.4003

                     16                     17                     18
                      A                      A                      A
 Frequencies --    501.6377               512.6372               545.1876
 Red. masses --      1.0853                 6.4853                 1.3203
 Frc consts  --      0.1609                 1.0042                 0.2312
 IR Inten    --     96.7312                 1.8878                54.8115

                     19                     20                     21
                      A                      A                      A
 Frequencies --    555.5883               560.5343               577.5077
 Red. masses --      4.5952                 5.0689                 2.5456
 Frc consts  --      0.8357                 0.9384                 0.5002
 IR Inten    --     31.2262                29.0499                49.9841

                     22                     23                     24
                      A                      A                      A
 Frequencies --    619.1025               678.8826               713.4949
 Red. masses --      4.6199                 4.8073                 4.1872
 Frc consts  --      1.0433                 1.3054                 1.2559
 IR Inten    --     17.7564                 0.6937                 5.1108

                     25                     26                     27
                      A                      A                      A
 Frequencies --    755.7758               793.7943               799.7431
 Red. masses --      5.6416                 1.4733                 5.2705
 Frc consts  --      1.8986                 0.5469                 1.9861
 IR Inten    --     13.3781                15.8438                17.8114

                     28                     29                     30
                      A                      A                      A
 Frequencies --    817.9062               854.9543               891.4721
 Red. masses --      1.5132                 2.0230                 4.7260
 Frc consts  --      0.5964                 0.8712                 2.2129
 IR Inten    --     46.5482                 3.9642                29.8625

                     31                     32                     33
                      A                      A                      A
 Frequencies --    909.3418               935.3186               973.5079
 Red. masses --      1.2972                 3.5555                 1.1454
 Frc consts  --      0.6320                 1.8326                 0.6396
 IR Inten    --      1.6612                 7.1586                34.4365

                     34                     35                     36
                      A                      A                      A
 Frequencies --   1032.6516              1114.4662              1133.0773
 Red. masses --      4.1005                 1.5787                 1.2714
 Frc consts  --      2.5763                 1.1553                 0.9617
 IR Inten    --     42.4352                94.5569                 0.2676

                     37                     38                     39
                      A                      A                      A
 Frequencies --   1138.2739              1156.8923              1180.2543
 Red. masses --      1.7845                 1.4760                 1.6552
 Frc consts  --      1.3622                 1.1639                 1.3585
 IR Inten    --    437.4172                21.7925                18.1251

                     40                     41                     42
                      A                      A                      A
 Frequencies --   1192.2087              1228.6836              1259.3012
 Red. masses --      1.3537                 1.8486                 1.9199
 Frc consts  --      1.1336                 1.6443                 1.7938
 IR Inten    --    121.6452               109.0837                47.5742

                     43                     44                     45
                      A                      A                      A
 Frequencies --   1284.5836              1296.3517              1309.7968
 Red. masses --      1.7255                 2.1129                 1.9905
 Frc consts  --      1.6776                 2.0920                 2.0119
 IR Inten    --     69.8262               334.8040                81.7212

                     46                     47                     48
                      A                      A                      A
 Frequencies --   1339.0217              1403.2518              1422.7241
 Red. masses --      3.0243                 3.2591                 1.6196
 Frc consts  --      3.1949                 3.7811                 1.9316
 IR Inten    --     96.7761                 7.8941                 2.8083

                     49                     50                     51
                      A                      A                      A
 Frequencies --   1443.4950              1444.7494              1459.8629
 Red. masses --      1.0437                 2.1416                 1.1337
 Frc consts  --      1.2814                 2.6337                 1.4236
 IR Inten    --     10.6613                28.2130                55.2679

                     52                     53                     54
                      A                      A                      A
 Frequencies --   1513.1530              1591.5007              1607.6081
 Red. masses --      3.7483                 5.7646                 6.5553
 Frc consts  --      5.0565                 8.6027                 9.9816
 IR Inten    --    266.6401               174.5856               129.8823

                     55                     56                     57
                      A                      A                      A
 Frequencies --   1633.6025              1715.4635              2956.7218
 Red. masses --      6.3211                 8.5002                 1.0333
 Frc consts  --      9.9388                14.7381                 5.3222
 IR Inten    --     31.4466               672.8678                48.4335

                     58                     59                     60
                      A                      A                      A
 Frequencies --   3028.2613              3099.8258              3101.4244
 Red. masses --      1.1065                 1.1007                 1.0890
 Frc consts  --      5.9784                 6.2313                 6.1719
 IR Inten    --     27.5808                14.3782                 2.4078

                     61                     62                     63
                      A                      A                      A
 Frequencies --   3136.9176              3138.6422              3146.7040
 Red. masses --      1.0874                 1.0894                 1.0894
 Frc consts  --      6.3042                 6.3230                 6.3558
 IR Inten    --      4.0252                 4.9695                 1.7426

                     64                     65                     66
                      A                      A                      A
 Frequencies --   3152.7338              3628.1156              3653.7445
 Red. masses --      1.0942                 1.0649                 1.0642
 Frc consts  --      6.4078                 8.2591                 8.3706
 IR Inten    --      6.1731               149.1604                83.3555

 - Thermochemistry -
 -------------------
 Temperature   298.150 Kelvin.  Pressure   1.00000 Atm.
 Atom     1 has atomic number  6 and mass  12.00000

 Molecular mass:   194.05791 amu.
 Principal axes and moments of inertia in atomic units:
                           1         2         3
     Eigenvalues --  1181.386226337.179377506.81431
           X            0.99995   0.01003   0.00009
           Y           -0.01003   0.99995  -0.00012
           Z           -0.00009   0.00012   1.00000
 This molecule is an asymmetric top.
 Rotational symmetry number  1.
 Warning -- assumption of classical behavior for rotation
           may cause significant error
 Rotational temperatures (Kelvin)      0.07332     0.01367     0.01154
 Rotational constants (GHZ):           1.52765     0.28479     0.24041
 Zero-point vibrational energy     474440.3 (Joules/Mol)
                                  113.39394 (Kcal/Mol)
 Warning -- explicit consideration of  22 degrees of freedom as
           vibrations may cause significant error
 Vibrational temperatures:     45.31    90.78   115.31   118.94   180.24
          (Kelvin)            239.97   276.99   313.69   316.76   404.95
                              426.21   500.84   516.50   634.18   682.04
                              721.74   737.57   784.40   799.37   806.48
                              830.90   890.75   976.76  1026.56  1087.39
                             1142.09  1150.65  1176.78  1230.09  1282.63
                             1308.34  1345.71  1400.66  1485.75  1603.47
                             1630.24  1637.72  1664.51  1698.12  1715.32
                             1767.80  1811.85  1848.23  1865.16  1884.50
                             1926.55  2018.96  2046.98  2076.86  2078.67
                             2100.41  2177.09  2289.81  2312.99  2350.39
                             2468.17  4254.06  4356.99  4459.95  4462.25
                             4513.32  4515.80  4527.40  4536.08  5220.04
                             5256.92

 Zero-point correction=                           0.180705 (Hartree/Particle)
 Thermal correction to Energy=                    0.194208
 Thermal correction to Enthalpy=                  0.195152
 Thermal correction to Gibbs Free Energy=         0.139578
 Sum of electronic and zero-point Energies=           -687.069133
 Sum of electronic and thermal Energies=              -687.055630
 Sum of electronic and thermal Enthalpies=            -687.054686
 Sum of electronic and thermal Free Energies=         -687.110260

                     E (Thermal)             CV                S
                      KCal/Mol        Cal/Mol-Kelvin    Cal/Mol-Kelvin
 Total                  121.867             50.472            116.965
 Electronic               0.000              0.000              0.000
 Translational            0.889              2.981             41.694
 Rotational               0.889              2.981             32.397
 Vibrational            120.090             44.511             42.874
 Vibration     1          0.594              1.983              5.733
 Vibration     2          0.597              1.972              4.358
 Vibration     3          0.600              1.963              3.887
 Vibration     4          0.600              1.961              3.826
 Vibration     5          0.610              1.928              3.017
 Vibration     6          0.624              1.883              2.471
 Vibration     7          0.634              1.850              2.203
 Vibration     8          0.646              1.814              1.975
 Vibration     9          0.647              1.810              1.958
 Vibration    10          0.681              1.708              1.525
 Vibration    11          0.690              1.681              1.438
 Vibration    12          0.726              1.579              1.175
 Vibration    13          0.734              1.557              1.126
 Vibration    14          0.801              1.381              0.824
 Vibration    15          0.831              1.308              0.726
 Vibration    16          0.857              1.246              0.654
 Vibration    17          0.868              1.222              0.627
 Vibration    18          0.900              1.150              0.554
 Vibration    19          0.911              1.127              0.533
 Vibration    20          0.916              1.117              0.523
 Vibration    21          0.934              1.080              0.490
 Vibration    22          0.979              0.992              0.418

 Optimization completed.
    -- Stationary point found.
 Normal termination of Gaussian 09 at Thu Jun 20 12:04:30 2024.
