 Gaussian 09, Revision E.01,
 Gaussian 09:  ES64L-G09RevE.01 30-Nov-2015

 --------------------------------------
 # opt freq pbepbe/6-31+g(d,p) em=gd3bj
 --------------------------------------

 ----------
 [No Title]
 ----------
 Symbolic Z-matrix:
 Charge =  1 Multiplicity = 1

 SCF Done:  E(RPBE-PBE) =  -687.596515720     A.U. after   19 cycles
 SCF Done:  E(RPBE-PBE) =  -687.597634779     A.U. after   13 cycles
 SCF Done:  E(RPBE-PBE) =  -687.597658290     A.U. after   11 cycles
 SCF Done:  E(RPBE-PBE) =  -687.597660323     A.U. after   11 cycles
 SCF Done:  E(RPBE-PBE) =  -687.597660813     A.U. after   10 cycles
 SCF Done:  E(RPBE-PBE) =  -687.597661323     A.U. after   10 cycles
 SCF Done:  E(RPBE-PBE) =  -687.597661690     A.U. after   10 cycles
 SCF Done:  E(RPBE-PBE) =  -687.597661835     A.U. after    9 cycles
 Optimization completed.
    -- Stationary point found.
 Normal termination of Gaussian 09 at Thu Jun 20 14:51:30 2024.

 ----------------------------------------------------------------------
 #N Geom=AllCheck Guess=TCheck SCRF=Check GenChk RPBEPBE/6-31+G(d,p) Fr
 eq
 ----------------------------------------------------------------------

 Structure from the checkpoint file:  "pbeFAyanggd3.chk"
 ----------
 [No Title]
 ----------
 Charge =  1 Multiplicity = 1

                         Standard orientation:
 ---------------------------------------------------------------------
 Center     Atomic      Atomic             Coordinates (Angstroms)
 Number     Number       Type             X           Y           Z
 ---------------------------------------------------------------------
      1          6           0        1.476783   -2.038148   -0.026770
      2          6           0        2.525894   -1.094115   -0.013338
      3          6           0        2.242842    0.311029    0.005482
      4          6           0        0.926661    0.744467    0.012424
      5          6           0       -0.146453   -0.206013    0.001805
      6          6           0        0.162846   -1.601493   -0.020847
      7          8           0        3.792353   -1.520759   -0.019962
      8          6           0       -1.478876    0.286003    0.011201
      9          6           0       -2.654881   -0.465318    0.019117
     10          6           0       -3.915054    0.135253    0.000084
     11          8           0       -4.987578   -0.648114    0.119950
     12          8           0       -4.040583    1.457609   -0.147232
     13          8           0        3.368549    1.073996    0.014642
     14          6           0        3.218965    2.506868    0.035135
     15          1           0        1.732264   -3.100091   -0.043722
     16          1           0        0.691954    1.811311    0.027174
     17          1           0       -0.639544   -2.342075   -0.034589
     18          1           0        4.388027   -0.736637   -0.009572
     19          1           0       -1.592293    1.377088    0.011929
     20          1           0       -2.658260   -1.556234    0.041074
     21          1           0       -5.829243   -0.210278   -0.122465
     22          1           0       -4.916361    1.799988    0.124612
     23          1           0        4.239123    2.909007    0.039598
     24          1           0        2.683904    2.850351   -0.866371
     25          1           0        2.686125    2.824527    0.947377
 ---------------------------------------------------------------------

 SCF Done:  E(RPBE-PBE) =  -687.597661835     A.U. after    1 cycles

 The electronic state is 1-A.
 Alpha  occ. eigenvalues --  -19.01210 -19.01109 -18.96266 -18.95973 -10.21418
 Alpha  occ. eigenvalues --  -10.12208 -10.10880 -10.08784 -10.07693 -10.06799
 Alpha  occ. eigenvalues --  -10.06754 -10.05839 -10.05737 -10.04913  -1.21268
 Alpha  occ. eigenvalues --   -1.14217  -1.14065  -1.11193  -0.93014  -0.89360
 Alpha  occ. eigenvalues --   -0.84137  -0.82927  -0.78547  -0.76438  -0.73482
 Alpha  occ. eigenvalues --   -0.71731  -0.68919  -0.66234  -0.64505  -0.61495
 Alpha  occ. eigenvalues --   -0.59773  -0.58312  -0.58031  -0.56816  -0.55135
 Alpha  occ. eigenvalues --   -0.53934  -0.53251  -0.51769  -0.50855  -0.50631
 Alpha  occ. eigenvalues --   -0.49611  -0.48379  -0.47612  -0.47299  -0.46536
 Alpha  occ. eigenvalues --   -0.44080  -0.43387  -0.43294  -0.40163  -0.35952
 Alpha  occ. eigenvalues --   -0.33003
 Alpha virt. eigenvalues --   -0.26691  -0.17971  -0.17325  -0.17150  -0.12461
 Alpha virt. eigenvalues --   -0.12183  -0.11492  -0.11271  -0.10874  -0.09079
 Alpha virt. eigenvalues --   -0.07704  -0.07645  -0.07137  -0.06583  -0.06040

 Mulliken charges:
               1
     1  C    0.077463
     2  C   -0.320239
     3  C    0.263582
     4  C   -0.224763
     5  C    0.319170
     6  C   -0.307864
     7  O   -0.391799
     8  C    0.131931
     9  C   -0.666159
    10  C    0.853981
    11  O   -0.363696
    12  O   -0.410341
    13  O   -0.367294
    14  C   -0.193664
    15  H    0.190215
    16  H    0.157668
    17  H    0.155995
    18  H    0.403795
    19  H    0.176393
    20  H    0.177712
    21  H    0.382364
    22  H    0.383629
    23  H    0.200184
    24  H    0.185937
    25  H    0.185799
 Sum of Mulliken charges =   1.00000

 Dipole moment (field-independent basis, Debye):
    X=             -7.0232    Y=              3.3362    Z=              0.0772  Tot=              7.7757
 Quadrupole moment (field-independent basis, Debye-Ang):
   XX=              9.7881   YY=            -61.4892   ZZ=            -83.0983
   XY=             -1.9900   XZ=              0.3405   YZ=              1.3190

  Exact polarizability: 330.990 -18.910 140.349  -0.533   0.057  70.949
 Approx polarizability: 989.367-141.283 287.348  -3.058  -0.355 117.646

                      1                      2                      3
                      A                      A                      A
 Frequencies --     48.5834                59.3599                82.1269
 Red. masses --      6.4155                 5.8144                 5.1840
 Frc consts  --      0.0089                 0.0121                 0.0206
 IR Inten    --      0.4160                 2.1485                 0.9599

                      4                      5                      6
                      A                      A                      A
 Frequencies --     97.8502               143.2259               174.0120
 Red. masses --      3.2658                 5.1728                 2.3282
 Frc consts  --      0.0184                 0.0625                 0.0415
 IR Inten    --      5.3184                 1.2429                14.3102

                      7                      8                      9
                      A                      A                      A
 Frequencies --    187.1264               220.5058               224.0825
 Red. masses --      3.6032                 6.3360                 1.3384
 Frc consts  --      0.0743                 0.1815                 0.0396
 IR Inten    --      7.6111                 6.6509                21.4349

                     10                     11                     12
                      A                      A                      A
 Frequencies --    269.3456               298.7049               317.4194
 Red. masses --      1.4983                 5.1234                 2.9729
 Frc consts  --      0.0640                 0.2693                 0.1765
 IR Inten    --    134.9821                 0.6965                27.7446

                     13                     14                     15
                      A                      A                      A
 Frequencies --    343.8393               360.0489               406.3528
 Red. masses --      4.6611                 2.0289                 1.1986
 Frc consts  --      0.3247                 0.1550                 0.1166
 IR Inten    --     11.6167                38.8709               232.2878

                     16                     17                     18
                      A                      A                      A
 Frequencies --    442.9243               482.5773               510.8535
 Red. masses --      3.1937                 5.6980                 5.2481
 Frc consts  --      0.3692                 0.7818                 0.8069
 IR Inten    --      0.4602                 6.4874                 8.8772

                     19                     20                     21
                      A                      A                      A
 Frequencies --    545.9482               561.9811               568.9765
 Red. masses --      4.4866                 3.0792                 3.6345
 Frc consts  --      0.7879                 0.5730                 0.6932
 IR Inten    --     30.3613                20.3504                15.2760

                     22                     23                     24
                      A                      A                      A
 Frequencies --    607.1449               611.8946               655.6263
 Red. masses --      1.2227                 4.2102                 5.1648
 Frc consts  --      0.2656                 0.9288                 1.3080
 IR Inten    --     89.9144                 8.1864                 4.7057

                     25                     26                     27
                      A                      A                      A
 Frequencies --    697.6495               759.6109               796.6433
 Red. masses --      5.0508                 5.6722                 1.5704
 Frc consts  --      1.4484                 1.9283                 0.5872
 IR Inten    --      0.6173                15.2741                 3.6358

                     28                     29                     30
                      A                      A                      A
 Frequencies --    808.4763               824.5338               838.9440
 Red. masses --      5.2804                 1.4490                 1.5241
 Frc consts  --      2.0335                 0.5804                 0.6320
 IR Inten    --      1.9897                55.7248                 3.5054

                     31                     32                     33
                      A                      A                      A
 Frequencies --    928.8774               932.0559               955.5680
 Red. masses --      1.3060                 3.5238                 2.2470
 Frc consts  --      0.6639                 1.8036                 1.2089
 IR Inten    --      2.3510                50.5667                90.3770

                     34                     35                     36
                      A                      A                      A
 Frequencies --    958.8269              1014.1064              1114.3447
 Red. masses --      1.9025                 4.3223                 1.1494
 Frc consts  --      1.0305                 2.6190                 0.8409
 IR Inten    --     46.5199                56.0405               167.0459

                     37                     38                     39
                      A                      A                      A
 Frequencies --   1117.8854              1130.3238              1137.0803
 Red. masses --      1.5589                 1.2675                 1.4790
 Frc consts  --      1.1478                 0.9542                 1.1267
 IR Inten    --     46.9096                 0.3403               826.6568

                     40                     41                     42
                      A                      A                      A
 Frequencies --   1158.6665              1188.3839              1195.0086
 Red. masses --      1.3504                 1.3094                 1.4844
 Frc consts  --      1.0681                 1.0895                 1.2489
 IR Inten    --     25.1428               152.5212                57.5354

                     43                     44                     45
                      A                      A                      A
 Frequencies --   1235.3383              1269.7858              1296.6732
 Red. masses --      1.8548                 1.8223                 2.2778
 Frc consts  --      1.6677                 1.7312                 2.2565
 IR Inten    --     21.5612                53.0764                77.4518

                     46                     47                     48
                      A                      A                      A
 Frequencies --   1308.2840              1340.7749              1400.8197
 Red. masses --      1.4361                 3.9847                 3.5051
 Frc consts  --      1.4482                 4.2205                 4.0525
 IR Inten    --    163.9555               319.2776               139.4895

                     49                     50                     51
                      A                      A                      A
 Frequencies --   1426.6242              1430.9474              1447.3909
 Red. masses --      2.2729                 1.9312                 1.0437
 Frc consts  --      2.7255                 2.3298                 1.2883
 IR Inten    --    169.9286               104.7190                15.1221

                     52                     53                     54
                      A                      A                      A
 Frequencies --   1449.6086              1464.7001              1523.4585
 Red. masses --      1.2008                 2.9135                 4.4860
 Frc consts  --      1.4867                 3.6827                 6.1344
 IR Inten    --     67.8007                 8.2150               546.9482

                     55                     56                     57
                      A                      A                      A
 Frequencies --   1559.6952              1570.1981              1603.3449
 Red. masses --      4.9493                 4.7413                 5.3112
 Frc consts  --      7.0937                 6.8874                 8.0444
 IR Inten    --    196.7234                20.4395              1097.8624

                     58                     59                     60
                      A                      A                      A
 Frequencies --   1640.8911              2975.5836              3057.5507
 Red. masses --      5.7284                 1.0327                 1.1079
 Frc consts  --      9.0874                 5.3872                 6.1025
 IR Inten    --    493.6318                24.3903                15.1210

                     61                     62                     63
                      A                      A                      A
 Frequencies --   3107.4194              3124.5019              3150.0012
 Red. masses --      1.0894                 1.1022                 1.0905
 Frc consts  --      6.1979                 6.3400                 6.3751
 IR Inten    --      0.6680                 2.7408                 1.7127

                     64                     65                     66
                      A                      A                      A
 Frequencies --   3150.8140              3164.6843              3170.7706
 Red. masses --      1.0883                 1.0956                 1.0903
 Frc consts  --      6.3655                 6.4651                 6.4585
 IR Inten    --      1.7233                 0.6053                 1.2590

                     67                     68                     69
                      A                      A                      A
 Frequencies --   3578.7973              3666.7168              3674.9818
 Red. masses --      1.0649                 1.0677                 1.0658
 Frc consts  --      8.0361                 8.4575                 8.4807
 IR Inten    --    313.6694                67.0291               525.7419

 - Thermochemistry -
 -------------------
 Temperature   298.150 Kelvin.  Pressure   1.00000 Atm.
 Atom     1 has atomic number  6 and mass  12.00000

 Molecular mass:   195.06573 amu.
 Principal axes and moments of inertia in atomic units:
                           1         2         3
     Eigenvalues --  1186.108996393.554997563.07495
           X            0.99994   0.01091   0.00018
           Y           -0.01091   0.99994   0.00243
           Z           -0.00015  -0.00243   1.00000
 This molecule is an asymmetric top.
 Rotational symmetry number  1.
 Warning -- assumption of classical behavior for rotation
           may cause significant error
 Rotational temperatures (Kelvin)      0.07302     0.01355     0.01145
 Rotational constants (GHZ):           1.52156     0.28228     0.23863
 Zero-point vibrational energy     505828.1 (Joules/Mol)
                                  120.89581 (Kcal/Mol)
 Warning -- explicit consideration of  23 degrees of freedom as
           vibrations may cause significant error
 Vibrational temperatures:     69.90    85.41   118.16   140.78   206.07
          (Kelvin)            250.36   269.23   317.26   322.40   387.53
                              429.77   456.70   494.71   518.03   584.65
                              637.27   694.32   735.00   785.50   808.56
                              818.63   873.55   880.38   943.30  1003.76
                             1092.91  1146.19  1163.22  1186.32  1207.05
                             1336.45  1341.02  1374.85  1379.54  1459.07
                             1603.29  1608.39  1626.28  1636.00  1667.06
                             1709.82  1719.35  1777.37  1826.94  1865.62
                             1882.33  1929.07  2015.46  2052.59  2058.81
                             2082.47  2085.66  2107.37  2191.91  2244.05
                             2259.16  2306.85  2360.87  4281.20  4399.13
                             4470.88  4495.46  4532.14  4533.31  4553.27
                             4562.03  5149.08  5275.58  5287.47

 Zero-point correction=                           0.192660 (Hartree/Particle)
 Thermal correction to Energy=                    0.206543
 Thermal correction to Enthalpy=                  0.207487
 Thermal correction to Gibbs Free Energy=         0.151804
 Sum of electronic and zero-point Energies=           -687.405002
 Sum of electronic and thermal Energies=              -687.391119
 Sum of electronic and thermal Enthalpies=            -687.390175
 Sum of electronic and thermal Free Energies=         -687.445858

                     E (Thermal)             CV                S
                      KCal/Mol        Cal/Mol-Kelvin    Cal/Mol-Kelvin
 Total                  129.607             52.408            117.195
 Electronic               0.000              0.000              0.000
 Translational            0.889              2.981             41.710
 Rotational               0.889              2.981             32.417
 Vibrational            127.830             46.446             43.068
 Vibration     1          0.595              1.978              4.874
 Vibration     2          0.597              1.974              4.478
 Vibration     3          0.600              1.961              3.839
 Vibration     4          0.603              1.951              3.497
 Vibration     5          0.616              1.910              2.760
 Vibration     6          0.627              1.874              2.392
 Vibration     7          0.632              1.858              2.256
 Vibration     8          0.647              1.810              1.955
 Vibration     9          0.649              1.804              1.926
 Vibration    10          0.674              1.730              1.600
 Vibration    11          0.692              1.676              1.424
 Vibration    12          0.704              1.640              1.323
 Vibration    13          0.723              1.588              1.194
 Vibration    14          0.735              1.555              1.122
 Vibration    15          0.771              1.456              0.940
 Vibration    16          0.803              1.377              0.817
 Vibration    17          0.839              1.289              0.703
 Vibration    18          0.866              1.226              0.632
 Vibration    19          0.901              1.149              0.553
 Vibration    20          0.918              1.114              0.520
 Vibration    21          0.925              1.098              0.506
 Vibration    22          0.966              1.017              0.438
 Vibration    23          0.971              1.007              0.430

 Normal termination of Gaussian 09 at Thu Jun 20 14:54:56 2024.
