 Gaussian 09, Revision E.01,
 Gaussian 09:  ES64L-G09RevE.01 30-Nov-2015

 -----------------------------------------------------
 # opt freq B2PLYP/6-31+g(d,p) EmpiricalDispersion=GD3
 -----------------------------------------------------

 ----------
 [No Title]
 ----------
 Symbolic Z-matrix:
 Charge =  1 Multiplicity = 1

 SCF Done:  E(RB2PLYP) =  -475.632539400     A.U. after   15 cycles
 E2(B2PLYP) =    -0.4839745025D+00 E(B2PLYP) =    -0.47611651390255D+03
 SCF Done:  E(RB2PLYP) =  -475.631753091     A.U. after   14 cycles
 E2(B2PLYP) =    -0.4845078526D+00 E(B2PLYP) =    -0.47611626094327D+03
 SCF Done:  E(RB2PLYP) =  -475.632320888     A.U. after   12 cycles
 E2(B2PLYP) =    -0.4845470902D+00 E(B2PLYP) =    -0.47611686797799D+03
 SCF Done:  E(RB2PLYP) =  -475.632489921     A.U. after   12 cycles
 E2(B2PLYP) =    -0.4844079012D+00 E(B2PLYP) =    -0.47611689782197D+03
 SCF Done:  E(RB2PLYP) =  -475.632600220     A.U. after   11 cycles
 E2(B2PLYP) =    -0.4842940115D+00 E(B2PLYP) =    -0.47611689423137D+03
 SCF Done:  E(RB2PLYP) =  -475.632631320     A.U. after   11 cycles
 E2(B2PLYP) =    -0.4842725218D+00 E(B2PLYP) =    -0.47611690384144D+03
 SCF Done:  E(RB2PLYP) =  -475.632605961     A.U. after   10 cycles
 E2(B2PLYP) =    -0.4842998529D+00 E(B2PLYP) =    -0.47611690581374D+03
 SCF Done:  E(RB2PLYP) =  -475.632596345     A.U. after    9 cycles
 E2(B2PLYP) =    -0.4843099921D+00 E(B2PLYP) =    -0.47611690633680D+03
 Optimization completed.
    -- Stationary point found.
 Normal termination of Gaussian 09 at Thu Dec 19 11:57:54 2024.

 ----------------------------------------------------------------------
 #N Geom=AllCheck Guess=TCheck SCRF=Check GenChk RB2PLYP(FC)/6-31+G(d,p
 ) Freq
 ----------------------------------------------------------------------

 Structure from the checkpoint file:  "B2PLYPD3Anthranilicyang.chk"
 ----------
 [No Title]
 ----------
 Charge =  1 Multiplicity = 1

                         Standard orientation:
 ---------------------------------------------------------------------
 Center     Atomic      Atomic             Coordinates (Angstroms)
 Number     Number       Type             X           Y           Z
 ---------------------------------------------------------------------
      1          6           0       -1.930434   -1.482023    0.000000
      2          6           0       -2.620551   -0.267652   -0.000004
      3          6           0       -1.916700    0.941346   -0.000008
      4          6           0       -0.530262    0.908357   -0.000000
      5          6           0        0.190975   -0.299468   -0.000023
      6          6           0       -0.535537   -1.499749   -0.000005
      7          6           0        1.677147   -0.295986   -0.000046
      8          8           0        2.221728   -1.504579    0.000072
      9          7           0        0.220961    2.186087    0.000040
     10          8           0        2.353280    0.740777   -0.000077
     11          1           0       -2.477821   -2.415901    0.000004
     12          1           0       -3.703144   -0.253901    0.000004
     13          1           0       -2.448244    1.886745    0.000003
     14          1           0        0.001404   -2.438785   -0.000012
     15          1           0        3.192138   -1.418814    0.000103
     16          1           0        0.014789    2.749934    0.828476
     17          1           0        1.251086    1.919816    0.000308
     18          1           0        0.015178    2.749764   -0.828610
 ---------------------------------------------------------------------

 SCF Done:  E(RB2PLYP) =  -475.632596345     A.U. after    1 cycles
 E2(B2PLYP) =    -0.4843099949D+00 E(B2PLYP) =    -0.47611690633965D+03
 E2(B2PLYP) =    -0.4843099949D+00 E(B2PLYP) =    -0.47611690633965D+03

 The electronic state is 1-A.
 Alpha  occ. eigenvalues --  -19.96612 -19.91998 -15.14985 -10.95906 -10.87549
 Alpha  occ. eigenvalues --  -10.83161 -10.81657 -10.81046 -10.80916 -10.79909
 Alpha  occ. eigenvalues --   -1.43479  -1.34315  -1.30796  -1.16059  -1.06259
 Alpha  occ. eigenvalues --   -1.03742  -0.93691  -0.90099  -0.86789  -0.83631
 Alpha  occ. eigenvalues --   -0.82134  -0.78984  -0.76450  -0.75078  -0.70308
 Alpha  occ. eigenvalues --   -0.70054  -0.68966  -0.68134  -0.64318  -0.60815
 Alpha  occ. eigenvalues --   -0.60247  -0.59229  -0.56244  -0.53554  -0.47138
 Alpha  occ. eigenvalues --   -0.46933
 Alpha virt. eigenvalues --   -0.17391  -0.13537  -0.13267  -0.08382  -0.08033
 Alpha virt. eigenvalues --   -0.06682  -0.06132  -0.05403  -0.05232  -0.04487
 Alpha virt. eigenvalues --   -0.02879  -0.02791  -0.01783  -0.01338  -0.00223

 Mulliken charges:
               1
     1  C   -0.046800
     2  C   -0.378421
     3  C    0.592756
     4  C   -1.171465
     5  C    0.998893
     6  C   -0.654854
     7  C    0.821511
     8  O   -0.480716
     9  N   -0.640173
    10  O   -0.539279
    11  H    0.196902
    12  H    0.198076
    13  H    0.183492
    14  H    0.213368
    15  H    0.426534
    16  H    0.408061
    17  H    0.464045
    18  H    0.408073
 Sum of Mulliken charges =   1.00000

 Dipole moment (field-independent basis, Debye):
    X=             -1.4417    Y=              4.3938    Z=              0.0003  Tot=              4.6243
 Quadrupole moment (field-independent basis, Debye-Ang):
   XX=            -37.0605   YY=            -28.6447   ZZ=            -56.9823
   XY=             -3.7508   XZ=              0.0006   YZ=              0.0005

  Exact polarizability: 116.081   0.807 101.552  -0.000  -0.000  48.788
 Approx polarizability: 133.912   1.518 127.077  -0.001  -0.001  62.386

                      1                      2                      3
                      A                      A                      A
 Frequencies --     77.3515               124.3608               222.4089
 Red. masses --      5.8512                 3.6720                 3.1122
 Frc consts  --      0.0206                 0.0335                 0.0907
 IR Inten    --      6.4117                 1.7906                18.9945

                      4                      5                      6
                      A                      A                      A
 Frequencies --    274.2303               305.1125               367.4284
 Red. masses --      5.2484                 1.2233                 3.8637
 Frc consts  --      0.2325                 0.0671                 0.3073
 IR Inten    --     10.9475                 1.0481                59.7764

                      7                      8                      9
                      A                      A                      A
 Frequencies --    408.2346               427.9242               468.9022
 Red. masses --      3.1679                 8.1782                 3.4026
 Frc consts  --      0.3111                 0.8823                 0.4408
 IR Inten    --      8.9965                 2.8958                 6.6446

                     10                     11                     12
                      A                      A                      A
 Frequencies --    501.3780               564.1281               593.5086
 Red. masses --      4.6182                 6.3041                 2.5240
 Frc consts  --      0.6840                 1.1820                 0.5238
 IR Inten    --      4.4490                 2.5719                20.8886

                     13                     14                     15
                      A                      A                      A
 Frequencies --    635.0826               658.9810               744.2994
 Red. masses --      1.5824                 5.4862                 2.5441
 Frc consts  --      0.3760                 1.4037                 0.8304
 IR Inten    --     72.4309                73.5231               107.9390

                     16                     17                     18
                      A                      A                      A
 Frequencies --    750.6663               788.9593               832.2092
 Red. masses --      4.1867                 1.7069                 5.3663
 Frc consts  --      1.3900                 0.6260                 2.1897
 IR Inten    --     42.8437                11.9395                11.9589

                     19                     20                     21
                      A                      A                      A
 Frequencies --    878.9682               972.4771               994.5349
 Red. masses --      1.2472                 1.3358                 1.2554
 Frc consts  --      0.5677                 0.7443                 0.7316
 IR Inten    --      0.0385                 0.3966                 0.0375

                     22                     23                     24
                      A                      A                      A
 Frequencies --   1063.8027              1081.7130              1120.8037
 Red. masses --      2.3631                 2.3201                 1.2922
 Frc consts  --      1.5756                 1.5995                 0.9564
 IR Inten    --     10.4727                10.3367                 8.3103

                     25                     26                     27
                      A                      A                      A
 Frequencies --   1126.6611              1186.3494              1206.5979
 Red. masses --      2.3364                 1.6885                 2.2833
 Frc consts  --      1.7473                 1.4001                 1.9585
 IR Inten    --    102.4212                13.1973                91.5983

                     28                     29                     30
                      A                      A                      A
 Frequencies --   1216.2818              1222.3503              1334.3138
 Red. masses --      1.1828                 1.6535                 1.5271
 Frc consts  --      1.0309                 1.4556                 1.6019
 IR Inten    --     30.7511                72.5203                 2.2787

                     31                     32                     33
                      A                      A                      A
 Frequencies --   1398.3952              1438.6371              1496.0828
 Red. masses --      5.6725                 2.9236                 1.9481
 Frc consts  --      6.5356                 3.5651                 2.5690
 IR Inten    --     22.6129               228.7225                80.6909

                     34                     35                     36
                      A                      A                      A
 Frequencies --   1508.8035              1543.8600              1623.9385
 Red. masses --      1.5255                 2.4680                 2.2239
 Frc consts  --      2.0461                 3.4658                 3.4554
 IR Inten    --    223.9529                68.9732                16.0665

                     37                     38                     39
                      A                      A                      A
 Frequencies --   1646.2394              1681.2669              1691.9145
 Red. masses --      2.2448                 2.9118                 1.0447
 Frc consts  --      3.5843                 4.8493                 1.7619
 IR Inten    --     33.3722                42.7417                39.0287

                     40                     41                     42
                      A                      A                      A
 Frequencies --   1734.0632              2794.3851              3225.5494
 Red. masses --      4.3197                 1.0852                 1.0922
 Frc consts  --      7.6531                 4.9928                 6.6952
 IR Inten    --    230.0323               606.8327                 0.5811

                     43                     44                     45
                      A                      A                      A
 Frequencies --   3248.3636              3259.3820              3269.0501
 Red. masses --      1.0907                 1.0952                 1.0963
 Frc consts  --      6.7812                 6.8551                 6.9029
 IR Inten    --      0.1294                 1.0158                 3.0947

                     46                     47                     48
                      A                      A                      A
 Frequencies --   3465.1644              3534.1864              3747.5403
 Red. masses --      1.0533                 1.0942                 1.0652
 Frc consts  --      7.4518                 8.0527                 8.8141
 IR Inten    --    105.9040               104.3099               218.7254

 - Thermochemistry -
 -------------------
 Temperature   298.150 Kelvin.  Pressure   1.00000 Atm.
 Atom     1 has atomic number  6 and mass  12.00000

 Molecular mass:   138.05550 amu.
 Principal axes and moments of inertia in atomic units:
                           1         2         3
     Eigenvalues --   809.271051498.388292297.77669
           X            1.00000   0.00086   0.00000
           Y           -0.00086   1.00000   0.00000
           Z           -0.00000  -0.00000   1.00000
 This molecule is an asymmetric top.
 Rotational symmetry number  1.
 Warning -- assumption of classical behavior for rotation
           may cause significant error
 Rotational temperatures (Kelvin)      0.10703     0.05780     0.03769
 Rotational constants (GHZ):           2.23008     1.20445     0.78543
 Zero-point vibrational energy     385537.5 (Joules/Mol)
                                   92.14568 (Kcal/Mol)
 Warning -- explicit consideration of  12 degrees of freedom as
           vibrations may cause significant error
 Vibrational temperatures:    111.29   178.93   320.00   394.56   438.99
          (Kelvin)            528.65   587.36   615.69   674.64   721.37
                              811.65   853.93   913.74   948.13  1070.88
                             1080.04  1135.14  1197.36  1264.64  1399.18
                             1430.91  1530.57  1556.34  1612.58  1621.01
                             1706.89  1736.02  1749.96  1758.69  1919.78
                             2011.98  2069.88  2152.53  2170.83  2221.27
                             2336.48  2368.57  2418.97  2434.28  2494.93
                             4020.49  4640.84  4673.66  4689.52  4703.43
                             4985.59  5084.90  5391.87

 Zero-point correction=                           0.146843 (Hartree/Particle)
 Thermal correction to Energy=                    0.155246
 Thermal correction to Enthalpy=                  0.156190
 Thermal correction to Gibbs Free Energy=         0.113532
 Sum of electronic and zero-point Energies=           -475.970063
 Sum of electronic and thermal Energies=              -475.961661
 Sum of electronic and thermal Enthalpies=            -475.960716
 Sum of electronic and thermal Free Energies=         -476.003374

                     E (Thermal)             CV                S
                      KCal/Mol        Cal/Mol-Kelvin    Cal/Mol-Kelvin
 Total                   97.418             32.783             89.781
 Electronic               0.000              0.000              0.000
 Translational            0.889              2.981             40.679
 Rotational               0.889              2.981             29.412
 Vibrational             95.641             26.822             19.690
 Vibration     1          0.599              1.964              3.957
 Vibration     2          0.610              1.929              3.031
 Vibration     3          0.648              1.807              1.939
 Vibration     4          0.677              1.721              1.569
 Vibration     5          0.696              1.664              1.389
 Vibration     6          0.740              1.539              1.091
 Vibration     7          0.773              1.452              0.933
 Vibration     8          0.789              1.409              0.865
 Vibration     9          0.826              1.319              0.741
 Vibration    10          0.857              1.247              0.655
 Vibration    11          0.920              1.109              0.516
 Vibration    12          0.951              1.046              0.461

 Optimization completed.
    -- Stationary point found.
 Normal termination of Gaussian 09 at Thu Dec 19 12:13:50 2024.
