 Gaussian 09, Revision E.01,
 Gaussian 09:  ES64L-G09RevE.01 30-Nov-2015

 -----------------------------------------------------
 # opt freq B2PLYP/6-31+g(d,p) EmpiricalDispersion=GD3
 -----------------------------------------------------

 ----------
 [No Title]
 ----------
 Symbolic Z-matrix:
 Charge =  0 Multiplicity = 1

 SCF Done:  E(RB2PLYP) =  -475.278154949     A.U. after   15 cycles
 E2(B2PLYP) =    -0.4849586244D+00 E(B2PLYP) =    -0.47576311357301D+03
 SCF Done:  E(RB2PLYP) =  -475.277757452     A.U. after   12 cycles
 E2(B2PLYP) =    -0.4855194574D+00 E(B2PLYP) =    -0.47576327690991D+03
 SCF Done:  E(RB2PLYP) =  -475.277637233     A.U. after   12 cycles
 E2(B2PLYP) =    -0.4856568917D+00 E(B2PLYP) =    -0.47576329412484D+03
 SCF Done:  E(RB2PLYP) =  -475.277785900     A.U. after   11 cycles
 E2(B2PLYP) =    -0.4855295069D+00 E(B2PLYP) =    -0.47576331540663D+03
 SCF Done:  E(RB2PLYP) =  -475.277807582     A.U. after   11 cycles
 E2(B2PLYP) =    -0.4855062330D+00 E(B2PLYP) =    -0.47576331381551D+03
 SCF Done:  E(RB2PLYP) =  -475.277796749     A.U. after   10 cycles
 E2(B2PLYP) =    -0.4855195714D+00 E(B2PLYP) =    -0.47576331632055D+03
 Optimization completed.
    -- Stationary point found.
 Normal termination of Gaussian 09 at Thu Dec 19 11:22:35 2024.

 ----------------------------------------------------------------------
 #N Geom=AllCheck Guess=TCheck SCRF=Check GenChk RB2PLYP(FC)/6-31+G(d,p
 ) Freq
 ----------------------------------------------------------------------

 Structure from the checkpoint file:  "B2PLYPD3Anthranilic.chk"
 ----------
 [No Title]
 ----------
 Charge =  0 Multiplicity = 1

                         Standard orientation:
 ---------------------------------------------------------------------
 Center     Atomic      Atomic             Coordinates (Angstroms)
 Number     Number       Type             X           Y           Z
 ---------------------------------------------------------------------
      1          6           0       -1.857571   -1.523300    0.000003
      2          6           0       -2.588071   -0.322582    0.000009
      3          6           0       -1.941452    0.902135    0.000014
      4          6           0       -0.528248    0.986557    0.000011
      5          6           0        0.213130   -0.230808    0.000001
      6          6           0       -0.473123   -1.464187   -0.000001
      7          6           0        1.679371   -0.202081   -0.000016
      8          8           0        2.255590   -1.435014   -0.000026
      9          7           0        0.073404    2.210517    0.000032
     10          8           0        2.381749    0.809841   -0.000017
     11          1           0       -2.366410   -2.478848    0.000001
     12          1           0       -3.672136   -0.347691    0.000012
     13          1           0       -2.517525    1.821674    0.000023
     14          1           0        0.110234   -2.375227   -0.000008
     15          1           0        3.213811   -1.281280   -0.000030
     16          1           0        1.080797    2.269530    0.000003
     17          1           0       -0.485526    3.045198   -0.000013
 ---------------------------------------------------------------------

 SCF Done:  E(RB2PLYP) =  -475.277796749     A.U. after    1 cycles
 E2(B2PLYP) =    -0.4855195739D+00 E(B2PLYP) =    -0.47576331632297D+03
 E2(B2PLYP) =    -0.4855195738D+00 E(B2PLYP) =    -0.47576331632296D+03

 The electronic state is 1-A.
 Alpha  occ. eigenvalues --  -19.80092 -19.74364 -14.86809 -10.78110 -10.69959
 Alpha  occ. eigenvalues --  -10.64938 -10.64671 -10.64514 -10.63527 -10.62822
 Alpha  occ. eigenvalues --   -1.26018  -1.16142  -1.06394  -0.97353  -0.89051
 Alpha  occ. eigenvalues --   -0.85129  -0.76376  -0.71867  -0.68630  -0.61913
 Alpha  occ. eigenvalues --   -0.60425  -0.59304  -0.57972  -0.53626  -0.53044
 Alpha  occ. eigenvalues --   -0.51628  -0.50559  -0.48150  -0.45623  -0.44474
 Alpha  occ. eigenvalues --   -0.42387  -0.39535  -0.37731  -0.35842  -0.30539
 Alpha  occ. eigenvalues --   -0.25071
 Alpha virt. eigenvalues --   -0.00186   0.02845   0.03793   0.04546   0.04813
 Alpha virt. eigenvalues --    0.05897   0.07073   0.07825   0.08312   0.09563
 Alpha virt. eigenvalues --    0.09747   0.10350   0.10885   0.12295   0.12837

 Mulliken charges:
               1
     1  C   -0.117021
     2  C   -0.426233
     3  C    0.468260
     4  C   -0.985851
     5  C    0.896909
     6  C   -0.584280
     7  C    0.845286
     8  O   -0.532093
     9  N   -0.666090
    10  O   -0.576794
    11  H    0.145157
    12  H    0.147718
    13  H    0.129618
    14  H    0.173396
    15  H    0.395692
    16  H    0.371797
    17  H    0.314530
 Sum of Mulliken charges =  -0.00000

 Dipole moment (field-independent basis, Debye):
    X=             -1.3550    Y=              0.3682    Z=             -0.0001  Tot=              1.4042
 Quadrupole moment (field-independent basis, Debye-Ang):
   XX=            -52.3445   YY=            -50.9211   ZZ=            -62.8676
   XY=             -5.4876   XZ=             -0.0000   YZ=             -0.0003

  Exact polarizability: 127.366   4.295 115.427  -0.000   0.000  54.269
 Approx polarizability: 140.908   8.485 140.791  -0.000   0.000  66.967

 ******    1 imaginary frequencies (negative Signs) ******

                      1                      2                      3
                      A                      A                      A
 Frequencies --   -300.6248                73.4582               142.9237
 Red. masses --      1.4155                 7.1680                 3.6118
 Frc consts  --      0.0754                 0.0228                 0.0435
 IR Inten    --    182.8073                 2.9538                 6.5672

                      4                      5                      6
                      A                      A                      A
 Frequencies --    217.8825               259.0302               372.4722
 Red. masses --      4.3193                 5.8343                 5.3055
 Frc consts  --      0.1208                 0.2306                 0.4337
 IR Inten    --      7.0470                 0.9460                 7.3635

                      7                      8                      9
                      A                      A                      A
 Frequencies --    399.7548               419.0417               513.0967
 Red. masses --      3.2601                 5.9086                 4.1761
 Frc consts  --      0.3069                 0.6113                 0.6478
 IR Inten    --      6.6711                 1.0462                 4.7503

                     10                     11                     12
                      A                      A                      A
 Frequencies --    513.1502               560.7382               570.3487
 Red. masses --      3.3169                 1.2613                 6.8753
 Frc consts  --      0.5146                 0.2337                 1.3177
 IR Inten    --     22.0262                73.5702                 1.3796

                     13                     14                     15
                      A                      A                      A
 Frequencies --    580.7766               595.5502               648.3234
 Red. masses --      1.4506                 1.9930                 5.3609
 Frc consts  --      0.2883                 0.4165                 1.3276
 IR Inten    --      0.0114                37.3623                49.0958

                     16                     17                     18
                      A                      A                      A
 Frequencies --    737.7920               751.4999               771.7574
 Red. masses --      2.0516                 4.3475                 2.3483
 Frc consts  --      0.6580                 1.4466                 0.8241
 IR Inten    --     99.4331                12.7263                 3.0131

                     19                     20                     21
                      A                      A                      A
 Frequencies --    825.4862               867.0240               939.0907
 Red. masses --      1.2800                 5.3995                 1.2566
 Frc consts  --      0.5139                 2.3915                 0.6529
 IR Inten    --      0.1195                 6.8473                 0.4264

                     22                     23                     24
                      A                      A                      A
 Frequencies --    951.4477              1045.4466              1081.4091
 Red. masses --      1.2471                 2.1610                 2.2113
 Frc consts  --      0.6652                 1.3916                 1.5236
 IR Inten    --      0.0070                 3.0530                38.5552

                     25                     26                     27
                      A                      A                      A
 Frequencies --   1096.1774              1187.7075              1200.1361
 Red. masses --      3.1059                 1.3744                 1.3439
 Frc consts  --      2.1988                 1.1423                 1.1405
 IR Inten    --    129.0886                69.7747               194.4815

                     28                     29                     30
                      A                      A                      A
 Frequencies --   1214.1375              1321.5055              1354.7692
 Red. masses --      1.3491                 1.9962                 1.9300
 Frc consts  --      1.1717                 2.0539                 2.0870
 IR Inten    --     91.9253                 3.6625                58.3014

                     31                     32                     33
                      A                      A                      A
 Frequencies --   1382.3646              1417.9772              1498.6792
 Red. masses --      2.9816                 5.8513                 2.5453
 Frc consts  --      3.3569                 6.9317                 3.3683
 IR Inten    --    121.7274                23.3840                12.7921

                     34                     35                     36
                      A                      A                      A
 Frequencies --   1535.7086              1610.9293              1642.9013
 Red. masses --      2.2906                 3.1980                 2.1393
 Frc consts  --      3.1829                 4.8897                 3.4020
 IR Inten    --     45.8144                78.8565               164.5623

                     37                     38                     39
                      A                      A                      A
 Frequencies --   1677.3965              1743.8671              3204.0993
 Red. masses --      3.2229                 6.4707                 1.0878
 Frc consts  --      5.3428                11.5938                 6.5798
 IR Inten    --    166.7953               387.3933                 8.5536

                     40                     41                     42
                      A                      A                      A
 Frequencies --   3223.6108              3240.3715              3259.0590
 Red. masses --      1.0919                 1.0925                 1.0950
 Frc consts  --      6.6852                 6.7588                 6.8524
 IR Inten    --     14.8726                 9.3461                 5.0788

                     43                     44                     45
                      A                      A                      A
 Frequencies --   3600.7615              3768.5449              3788.9335
 Red. masses --      1.0489                 1.1024                 1.0647
 Frc consts  --      8.0129                 9.2241                 9.0059
 IR Inten    --    104.5872                83.5086               101.3318

 - Thermochemistry -
 -------------------
 Temperature   298.150 Kelvin.  Pressure   1.00000 Atm.
 Atom     1 has atomic number  6 and mass  12.00000

 Molecular mass:   137.04768 amu.
 Principal axes and moments of inertia in atomic units:
                           1         2         3
     Eigenvalues --   788.408811488.899802277.30861
           X            0.99999  -0.00444   0.00001
           Y            0.00444   0.99999  -0.00001
           Z           -0.00001   0.00001   1.00000
 This molecule is an asymmetric top.
 Rotational symmetry number  1.
 Warning -- assumption of classical behavior for rotation
           may cause significant error
 Rotational temperatures (Kelvin)      0.10986     0.05817     0.03803
 Rotational constants (GHZ):           2.28909     1.21213     0.79249
    1 imaginary frequencies ignored.
 Zero-point vibrational energy     345763.5 (Joules/Mol)
                                   82.63945 (Kcal/Mol)
 Warning -- explicit consideration of  13 degrees of freedom as
           vibrations may cause significant error
 Vibrational temperatures:    105.69   205.64   313.48   372.69   535.90
          (Kelvin)            575.16   602.91   738.23   738.31   806.78
                              820.60   835.61   856.86   932.79  1061.52
                             1081.24  1110.39  1187.69  1247.45  1351.14
                             1368.92  1504.16  1555.90  1577.15  1708.84
                             1726.73  1746.87  1901.35  1949.21  1988.91
                             2040.15  2156.26  2209.54  2317.77  2363.77
                             2413.40  2509.03  4609.98  4638.05  4662.17
                             4689.05  5180.69  5422.09  5451.42

 Zero-point correction=                           0.131694 (Hartree/Particle)
 Thermal correction to Energy=                    0.139861
 Thermal correction to Enthalpy=                  0.140805
 Thermal correction to Gibbs Free Energy=         0.098611
 Sum of electronic and zero-point Energies=           -475.631622
 Sum of electronic and thermal Energies=              -475.623455
 Sum of electronic and thermal Enthalpies=            -475.622511
 Sum of electronic and thermal Free Energies=         -475.664705

                     E (Thermal)             CV                S
                      KCal/Mol        Cal/Mol-Kelvin    Cal/Mol-Kelvin
 Total                   87.764             32.061             88.804
 Electronic               0.000              0.000              0.000
 Translational            0.889              2.981             40.657
 Rotational               0.889              2.981             29.371
 Vibrational             85.987             26.099             18.776
 Vibration     1          0.599              1.967              4.058
 Vibration     2          0.616              1.910              2.764
 Vibration     3          0.646              1.814              1.977
 Vibration     4          0.668              1.747              1.668
 Vibration     5          0.744              1.529              1.070
 Vibration     6          0.766              1.471              0.964
 Vibration     7          0.782              1.429              0.895
 Vibration     8          0.868              1.221              0.626
 Vibration     9          0.868              1.221              0.626
 Vibration    10          0.916              1.116              0.522
 Vibration    11          0.926              1.095              0.504
 Vibration    12          0.937              1.073              0.484
 Vibration    13          0.953              1.041              0.457

 Optimization completed.
    -- Stationary point found.
 Normal termination of Gaussian 09 at Thu Dec 19 11:37:05 2024.
