 Gaussian 09, Revision E.01,
 Gaussian 09:  ES64L-G09RevE.01 30-Nov-2015

 ----------------------------------------------------
 # opt freq b3lyp/6-31+g(d,p) EmpiricalDispersion=GD3
 ----------------------------------------------------

 ----------
 [No Title]
 ----------
 Symbolic Z-matrix:
 Charge =  0 Multiplicity = 1

 SCF Done:  E(RB3LYP) =  -476.236709739     A.U. after   15 cycles
 SCF Done:  E(RB3LYP) =  -476.236832285     A.U. after   12 cycles
 SCF Done:  E(RB3LYP) =  -476.236868165     A.U. after   12 cycles
 SCF Done:  E(RB3LYP) =  -476.236881757     A.U. after   11 cycles
 SCF Done:  E(RB3LYP) =  -476.236879652     A.U. after   11 cycles
 SCF Done:  E(RB3LYP) =  -476.236883300     A.U. after   10 cycles
 Optimization completed.
    -- Stationary point found.
 Normal termination of Gaussian 09 at Tue Dec 17 20:27:36 2024.

 ----------------------------------------------------------------------
 #N Geom=AllCheck Guess=TCheck SCRF=Check GenChk RB3LYP/6-31+G(d,p) Fre
 q
 ----------------------------------------------------------------------

 Structure from the checkpoint file:  "b3lypD3Anthranilic.chk"
 ----------
 [No Title]
 ----------
 Charge =  0 Multiplicity = 1

                         Standard orientation:
 ---------------------------------------------------------------------
 Center     Atomic      Atomic             Coordinates (Angstroms)
 Number     Number       Type             X           Y           Z
 ---------------------------------------------------------------------
      1          6           0       -1.857375   -1.525611    0.000006
      2          6           0       -2.589122   -0.324696   -0.000000
      3          6           0       -1.944873    0.900632    0.000004
      4          6           0       -0.530574    0.987709    0.000013
      5          6           0        0.214417   -0.231222    0.000017
      6          6           0       -0.473454   -1.464489    0.000013
      7          6           0        1.680961   -0.201095    0.000022
      8          8           0        2.262331   -1.431231   -0.000044
      9          7           0        0.070524    2.210950    0.000027
     10          8           0        2.380955    0.810107   -0.000031
     11          1           0       -2.366547   -2.483378    0.000005
     12          1           0       -3.675383   -0.351760   -0.000007
     13          1           0       -2.523491    1.820890    0.000001
     14          1           0        0.110903   -2.377213    0.000017
     15          1           0        3.221338   -1.279411   -0.000080
     16          1           0        1.080326    2.267413    0.000027
     17          1           0       -0.486988    3.048430   -0.000003
 ---------------------------------------------------------------------

 SCF Done:  E(RB3LYP) =  -476.236883300     A.U. after    1 cycles

 The electronic state is 1-A.
 Alpha  occ. eigenvalues --  -19.20710 -19.15266 -14.35770 -10.33220 -10.25790
 Alpha  occ. eigenvalues --  -10.20996 -10.20930 -10.20600 -10.19998 -10.19261
 Alpha  occ. eigenvalues --   -1.11468  -1.02238  -0.93806  -0.85241  -0.77726
 Alpha  occ. eigenvalues --   -0.74216  -0.66798  -0.62831  -0.59998  -0.54181
 Alpha  occ. eigenvalues --   -0.52998  -0.51434  -0.49429  -0.46270  -0.45795
 Alpha  occ. eigenvalues --   -0.44477  -0.43537  -0.40868  -0.39443  -0.37885
 Alpha  occ. eigenvalues --   -0.36098  -0.33278  -0.32331  -0.29014  -0.26828
 Alpha  occ. eigenvalues --   -0.21704
 Alpha virt. eigenvalues --   -0.05583  -0.00604  -0.00281   0.00708   0.01562
 Alpha virt. eigenvalues --    0.03116   0.04061   0.04451   0.05264   0.05308
 Alpha virt. eigenvalues --    0.06820   0.07271   0.08065   0.09251   0.09876

 Mulliken charges:
               1
     1  C   -0.032396
     2  C   -0.449388
     3  C    0.430256
     4  C   -0.923468
     5  C    0.985155
     6  C   -0.732926
     7  C    0.822237
     8  O   -0.489215
     9  N   -0.637183
    10  O   -0.529771
    11  H    0.124991
    12  H    0.126953
    13  H    0.109835
    14  H    0.152362
    15  H    0.385111
    16  H    0.353314
    17  H    0.304132
 Sum of Mulliken charges =  -0.00000

 Dipole moment (field-independent basis, Debye):
    X=             -1.2361    Y=              0.5545    Z=             -0.0000  Tot=              1.3547
 Quadrupole moment (field-independent basis, Debye-Ang):
   XX=            -52.6969   YY=            -50.7852   ZZ=            -62.5099
   XY=             -5.2887   XZ=              0.0000   YZ=             -0.0000

  Exact polarizability: 129.117   4.034 115.987  -0.001   0.001  54.234
 Approx polarizability: 196.059  11.633 195.466  -0.000   0.000  79.008

 ******    1 imaginary frequencies (negative Signs) ******

                      1                      2                      3
                      A                      A                      A
 Frequencies --    -51.8233                91.1840               179.1376
 Red. masses --      2.7993                 4.8227                 1.6669
 Frc consts  --      0.0044                 0.0236                 0.0315
 IR Inten    --     89.8479                15.4821                76.1036

                      4                      5                      6
                      A                      A                      A
 Frequencies --    237.0781               259.2486               371.5435
 Red. masses --      4.2325                 5.7621                 5.2780
 Frc consts  --      0.1402                 0.2282                 0.4293
 IR Inten    --      6.0467                 1.2100                 8.0617

                      7                      8                      9
                      A                      A                      A
 Frequencies --    421.1704               428.8691               514.2848
 Red. masses --      5.9821                 2.9944                 4.1592
 Frc consts  --      0.6252                 0.3245                 0.6481
 IR Inten    --      1.1825                 7.1499                 4.7520

                     10                     11                     12
                      A                      A                      A
 Frequencies --    537.9240               569.0317               573.5932
 Red. masses --      2.8688                 6.8808                 1.1944
 Frc consts  --      0.4891                 1.3127                 0.2315
 IR Inten    --     11.6223                 1.4531                96.3684

                     13                     14                     15
                      A                      A                      A
 Frequencies --    614.8705               648.9206               716.5018
 Red. masses --      1.0379                 5.3675                 3.1464
 Frc consts  --      0.2312                 1.3317                 0.9517
 IR Inten    --     19.3728                48.8711                46.0595

                     16                     17                     18
                      A                      A                      A
 Frequencies --    749.6947               763.9120               804.1277
 Red. masses --      4.2985                 1.4856                 3.3361
 Frc consts  --      1.4234                 0.5108                 1.2710
 IR Inten    --     12.6314                55.3682                 2.2003

                     19                     20                     21
                      A                      A                      A
 Frequencies --    861.6018               865.0723               970.0273
 Red. masses --      1.7871                 5.4027                 1.3582
 Frc consts  --      0.7817                 2.3821                 0.7530
 IR Inten    --      3.8134                 6.2382                 0.5610

                     22                     23                     24
                      A                      A                      A
 Frequencies --    990.7172              1040.0227              1076.8967
 Red. masses --      1.3024                 2.1123                 2.0870
 Frc consts  --      0.7532                 1.3461                 1.4260
 IR Inten    --      0.0247                 4.0191                27.9903

                     25                     26                     27
                      A                      A                      A
 Frequencies --   1092.2590              1182.6678              1192.4617
 Red. masses --      3.5048                 1.3953                 1.4662
 Frc consts  --      2.4636                 1.1498                 1.2284
 IR Inten    --    133.0914                97.4587               230.6544

                     28                     29                     30
                      A                      A                      A
 Frequencies --   1207.3784              1314.1332              1344.4654
 Red. masses --      1.2572                 2.0881                 1.9153
 Frc consts  --      1.0798                 2.1246                 2.0398
 IR Inten    --     52.4527                 5.0539                53.5807

                     31                     32                     33
                      A                      A                      A
 Frequencies --   1371.9846              1399.7927              1488.4394
 Red. masses --      2.8827                 5.2240                 2.5698
 Frc consts  --      3.1970                 6.0309                 3.3544
 IR Inten    --     89.0269                50.9656                14.0267

                     34                     35                     36
                      A                      A                      A
 Frequencies --   1523.7857              1596.6694              1628.4786
 Red. masses --      2.2434                 3.2152                 1.9282
 Frc consts  --      3.0691                 4.8293                 3.0127
 IR Inten    --     38.8010                86.6230               187.2320

                     37                     38                     39
                      A                      A                      A
 Frequencies --   1665.2007              1743.8809              3171.4557
 Red. masses --      3.8336                 6.7716                 1.0873
 Frc consts  --      6.2631                12.1333                 6.4435
 IR Inten    --    159.0795               411.0721                 8.9303

                     40                     41                     42
                      A                      A                      A
 Frequencies --   3190.1451              3207.2378              3227.2049
 Red. masses --      1.0918                 1.0923                 1.0945
 Frc consts  --      6.5467                 6.6201                 6.7158
 IR Inten    --     16.5095                10.0997                 4.7927

                     43                     44                     45
                      A                      A                      A
 Frequencies --   3562.3440              3731.1787              3774.2674
 Red. masses --      1.0501                 1.1013                 1.0648
 Frc consts  --      7.8512                 9.0334                 8.9364
 IR Inten    --    107.3031                75.5694               100.1941

 - Thermochemistry -
 -------------------
 Temperature   298.150 Kelvin.  Pressure   1.00000 Atm.
 Atom     1 has atomic number  6 and mass  12.00000

 Molecular mass:   137.04768 amu.
 Principal axes and moments of inertia in atomic units:
                           1         2         3
     Eigenvalues --   788.415151491.917882280.33303
           X            0.99999  -0.00440   0.00001
           Y            0.00440   0.99999  -0.00001
           Z           -0.00001   0.00001   1.00000
 This molecule is an asymmetric top.
 Rotational symmetry number  1.
 Warning -- assumption of classical behavior for rotation
           may cause significant error
 Rotational temperatures (Kelvin)      0.10986     0.05806     0.03798
 Rotational constants (GHZ):           2.28907     1.20968     0.79144
    1 imaginary frequencies ignored.
 Zero-point vibrational energy     346324.1 (Joules/Mol)
                                   82.77344 (Kcal/Mol)
 Warning -- explicit consideration of  12 degrees of freedom as
           vibrations may cause significant error
 Vibrational temperatures:    131.19   257.74   341.10   373.00   534.57
          (Kelvin)            605.97   617.05   739.94   773.95   818.71
                              825.27   884.66   933.65  1030.89  1078.64
                             1099.10  1156.96  1239.65  1244.64  1395.65
                             1425.42  1496.36  1549.41  1571.52  1701.59
                             1715.68  1737.15  1890.74  1934.38  1973.98
                             2013.99  2141.53  2192.38  2297.25  2343.01
                             2395.85  2509.05  4563.01  4589.90  4614.49
                             4643.22  5125.41  5368.33  5430.32

 Zero-point correction=                           0.131908 (Hartree/Particle)
 Thermal correction to Energy=                    0.139788
 Thermal correction to Enthalpy=                  0.140732
 Thermal correction to Gibbs Free Energy=         0.099256
 Sum of electronic and zero-point Energies=           -476.104975
 Sum of electronic and thermal Energies=              -476.097095
 Sum of electronic and thermal Enthalpies=            -476.096151
 Sum of electronic and thermal Free Energies=         -476.137628

                     E (Thermal)             CV                S
                      KCal/Mol        Cal/Mol-Kelvin    Cal/Mol-Kelvin
 Total                   87.718             31.335             87.294
 Electronic               0.000              0.000              0.000
 Translational            0.889              2.981             40.657
 Rotational               0.889              2.981             29.374
 Vibrational             85.941             25.373             17.263
 Vibration     1          0.602              1.955              3.635
 Vibration     2          0.629              1.868              2.337
 Vibration     3          0.656              1.784              1.825
 Vibration     4          0.668              1.747              1.667
 Vibration     5          0.743              1.531              1.073
 Vibration     6          0.784              1.424              0.888
 Vibration     7          0.790              1.407              0.862
 Vibration     8          0.869              1.218              0.623
 Vibration     9          0.893              1.166              0.570
 Vibration    10          0.925              1.098              0.506
 Vibration    11          0.930              1.088              0.497
 Vibration    12          0.974              1.000              0.425

 Optimization completed.
    -- Stationary point found.
 Normal termination of Gaussian 09 at Tue Dec 17 20:28:19 2024.
