 Gaussian 09, Revision E.01,
 Gaussian 09:  ES64L-G09RevE.01 30-Nov-2015

 ----------------------------------------------------
 # opt freq b3lyp/6-31+g(d,p) EmpiricalDispersion=GD3
 ----------------------------------------------------

 ----------
 [No Title]
 ----------
 Symbolic Z-matrix:
 Charge =  1 Multiplicity = 1

 SCF Done:  E(RB3LYP) =  -476.589924697     A.U. after   14 cycles
 SCF Done:  E(RB3LYP) =  -476.589763953     A.U. after   13 cycles
 SCF Done:  E(RB3LYP) =  -476.590060287     A.U. after    9 cycles
 SCF Done:  E(RB3LYP) =  -476.590094623     A.U. after   11 cycles
 SCF Done:  E(RB3LYP) =  -476.590146869     A.U. after   11 cycles
 SCF Done:  E(RB3LYP) =  -476.590151539     A.U. after   10 cycles
 SCF Done:  E(RB3LYP) =  -476.590151245     A.U. after   10 cycles
 SCF Done:  E(RB3LYP) =  -476.590152036     A.U. after   10 cycles
 SCF Done:  E(RB3LYP) =  -476.590152267     A.U. after   10 cycles
 Optimization completed.
    -- Stationary point found.
 Normal termination of Gaussian 09 at Tue Dec 17 20:48:22 2024.

 ----------------------------------------------------------------------
 #N Geom=AllCheck Guess=TCheck SCRF=Check GenChk RB3LYP/6-31+G(d,p) Fre
 q
 ----------------------------------------------------------------------

 Structure from the checkpoint file:  "b3lypD3Anthranilicyang.chk"
 ----------
 [No Title]
 ----------
 Charge =  1 Multiplicity = 1

                         Standard orientation:
 ---------------------------------------------------------------------
 Center     Atomic      Atomic             Coordinates (Angstroms)
 Number     Number       Type             X           Y           Z
 ---------------------------------------------------------------------
      1          6           0       -1.937575   -1.477660   -0.000103
      2          6           0       -2.622713   -0.260703   -0.000128
      3          6           0       -1.914288    0.946526   -0.000079
      4          6           0       -0.528798    0.909688   -0.000012
      5          6           0        0.188136   -0.302242    0.000098
      6          6           0       -0.542823   -1.499998    0.000006
      7          6           0        1.674886   -0.300491    0.000395
      8          8           0        2.224394   -1.504990   -0.000269
      9          7           0        0.233219    2.183611   -0.000123
     10          8           0        2.348821    0.736214    0.000413
     11          1           0       -2.489455   -2.411434   -0.000144
     12          1           0       -3.707460   -0.242810   -0.000213
     13          1           0       -2.443986    1.895185   -0.000148
     14          1           0       -0.008477   -2.442786    0.000078
     15          1           0        3.195717   -1.422643   -0.000388
     16          1           0        0.033476    2.750471    0.829882
     17          1           0        1.267821    1.897729   -0.000394
     18          1           0        0.033163    2.750490   -0.830038
 ---------------------------------------------------------------------

 SCF Done:  E(RB3LYP) =  -476.590152267     A.U. after    1 cycles

 The electronic state is 1-A.
 Alpha  occ. eigenvalues --  -19.37558 -19.33092 -14.62924 -10.51190 -10.43510
 Alpha  occ. eigenvalues --  -10.39460 -10.37945 -10.37230 -10.37143 -10.36281
 Alpha  occ. eigenvalues --   -1.29156  -1.20662  -1.17528  -1.03832  -0.94981
 Alpha  occ. eigenvalues --   -0.92694  -0.84209  -0.80995  -0.78078  -0.75859
 Alpha  occ. eigenvalues --   -0.74024  -0.71326  -0.68536  -0.66760  -0.63056
 Alpha  occ. eigenvalues --   -0.62975  -0.61692  -0.61007  -0.57035  -0.54560
 Alpha  occ. eigenvalues --   -0.54219  -0.52929  -0.50064  -0.46967  -0.43679
 Alpha  occ. eigenvalues --   -0.43504
 Alpha virt. eigenvalues --   -0.23055  -0.19189  -0.17094  -0.12635  -0.12272
 Alpha virt. eigenvalues --   -0.11448  -0.10236  -0.09536  -0.08337  -0.07413
 Alpha virt. eigenvalues --   -0.06359  -0.06192  -0.05221  -0.04157  -0.04148

 Mulliken charges:
               1
     1  C    0.016584
     2  C   -0.365240
     3  C    0.530497
     4  C   -1.019241
     5  C    1.056317
     6  C   -0.812138
     7  C    0.783595
     8  O   -0.434199
     9  N   -0.661207
    10  O   -0.476630
    11  H    0.177327
    12  H    0.178341
    13  H    0.164246
    14  H    0.192528
    15  H    0.417562
    16  H    0.403741
    17  H    0.444186
    18  H    0.403732
 Sum of Mulliken charges =   1.00000

 Dipole moment (field-independent basis, Debye):
    X=             -1.2216    Y=              4.2423    Z=             -0.0010  Tot=              4.4147
 Quadrupole moment (field-independent basis, Debye-Ang):
   XX=            -36.5361   YY=            -28.9840   ZZ=            -56.5851
   XY=             -3.6323   XZ=             -0.0014   YZ=             -0.0021

  Exact polarizability: 118.000   0.585 102.294   0.004   0.002  48.830
 Approx polarizability: 183.345   2.193 170.270   0.007   0.004  73.048

                      1                      2                      3
                      A                      A                      A
 Frequencies --     87.9825               131.2521               229.8262
 Red. masses --      5.9907                 3.6835                 3.1781
 Frc consts  --      0.0273                 0.0374                 0.0989
 IR Inten    --      6.6773                 1.7754                19.0442

                      4                      5                      6
                      A                      A                      A
 Frequencies --    276.6248               327.2313               369.0597
 Red. masses --      5.1977                 1.1945                 3.9043
 Frc consts  --      0.2343                 0.0754                 0.3133
 IR Inten    --     12.1800                 0.4262                63.7359

                      7                      8                      9
                      A                      A                      A
 Frequencies --    424.7070               431.1833               489.4932
 Red. masses --      3.0194                 8.1097                 3.1847
 Frc consts  --      0.3209                 0.8883                 0.4496
 IR Inten    --      9.8464                 3.0946                 5.0604

                     10                     11                     12
                      A                      A                      A
 Frequencies --    502.4306               562.6534               621.5168
 Red. masses --      4.6026                 6.2875                 1.2723
 Frc consts  --      0.6846                 1.1728                 0.2896
 IR Inten    --      3.9856                 2.7470                74.3875

                     13                     14                     15
                      A                      A                      A
 Frequencies --    661.0837               700.9137               750.5864
 Red. masses --      5.5343                 3.1139                 4.1513
 Frc consts  --      1.4250                 0.9013                 1.3779
 IR Inten    --     73.9824                43.4475                45.9028

                     16                     17                     18
                      A                      A                      A
 Frequencies --    761.2319               807.9888               828.0923
 Red. masses --      1.6333                 2.5023                 5.3534
 Frc consts  --      0.5576                 0.9625                 2.1629
 IR Inten    --     89.6887                 1.2017                13.3519

                     19                     20                     21
                      A                      A                      A
 Frequencies --    898.9685               992.3074              1031.2463
 Red. masses --      1.3647                 1.3685                 1.3523
 Frc consts  --      0.6498                 0.7939                 0.8474
 IR Inten    --      0.0424                 0.5109                 0.0002

                     22                     23                     24
                      A                      A                      A
 Frequencies --   1060.6641              1077.4886              1120.5834
 Red. masses --      2.3525                 2.3630                 1.3136
 Frc consts  --      1.5593                 1.6164                 0.9718
 IR Inten    --     11.6009                12.2747                 8.6015

                     25                     26                     27
                      A                      A                      A
 Frequencies --   1122.6844              1181.9169              1198.1246
 Red. masses --      2.2583                 1.6883                 2.4857
 Frc consts  --      1.6771                 1.3896                 2.1024
 IR Inten    --     89.2349                 8.6974                77.2406

                     28                     29                     30
                      A                      A                      A
 Frequencies --   1209.0290              1213.1661              1325.5101
 Red. masses --      1.4339                 1.3007                 1.5569
 Frc consts  --      1.2349                 1.1279                 1.6117
 IR Inten    --    105.0006                39.8386                 2.9770

                     31                     32                     33
                      A                      A                      A
 Frequencies --   1372.8197              1428.8871              1482.4952
 Red. masses --      4.8407                 2.7529                 1.6187
 Frc consts  --      5.3750                 3.3116                 2.0961
 IR Inten    --     25.8763               254.2344               205.1444

                     34                     35                     36
                      A                      A                      A
 Frequencies --   1493.9809              1533.7330              1609.5786
 Red. masses --      1.9742                 2.4004                 1.7628
 Frc consts  --      2.5962                 3.3269                 2.6908
 IR Inten    --     97.2027                77.6288                19.6085

                     37                     38                     39
                      A                      A                      A
 Frequencies --   1633.2858              1669.6838              1674.8823
 Red. masses --      2.5066                 3.4063                 1.0440
 Frc consts  --      3.9397                 5.5951                 1.7256
 IR Inten    --     19.9493                48.2100                38.6216

                     40                     41                     42
                      A                      A                      A
 Frequencies --   1729.2296              2663.7156              3194.7423
 Red. masses --      4.6166                 1.0917                 1.0918
 Frc consts  --      8.1335                 4.5639                 6.5657
 IR Inten    --    250.5090               651.4543                 0.6463

                     43                     44                     45
                      A                      A                      A
 Frequencies --   3215.4354              3226.6684              3237.5846
 Red. masses --      1.0907                 1.0952                 1.0956
 Frc consts  --      6.6438                 6.7185                 6.7665
 IR Inten    --      0.1439                 0.7190                 3.0575

                     46                     47                     48
                      A                      A                      A
 Frequencies --   3434.4923              3498.7548              3732.0670
 Red. masses --      1.0523                 1.0946                 1.0652
 Frc consts  --      7.3130                 7.8945                 8.7417
 IR Inten    --     95.1839                98.2599               215.2595

 - Thermochemistry -
 -------------------
 Temperature   298.150 Kelvin.  Pressure   1.00000 Atm.
 Atom     1 has atomic number  6 and mass  12.00000

 Molecular mass:   138.05550 amu.
 Principal axes and moments of inertia in atomic units:
                           1         2         3
     Eigenvalues --   808.311841499.832612298.22794
           X            1.00000   0.00125  -0.00005
           Y           -0.00125   1.00000  -0.00003
           Z            0.00005   0.00003   1.00000
 This molecule is an asymmetric top.
 Rotational symmetry number  1.
 Warning -- assumption of classical behavior for rotation
           may cause significant error
 Rotational temperatures (Kelvin)      0.10715     0.05775     0.03769
 Rotational constants (GHZ):           2.23273     1.20330     0.78528
 Zero-point vibrational energy     384166.3 (Joules/Mol)
                                   91.81794 (Kcal/Mol)
 Warning -- explicit consideration of  11 degrees of freedom as
           vibrations may cause significant error
 Vibrational temperatures:    126.59   188.84   330.67   398.00   470.81
          (Kelvin)            530.99   611.06   620.38   704.27   722.88
                              809.53   894.22   951.15  1008.46  1079.93
                             1095.24  1162.51  1191.44  1293.41  1427.71
                             1483.73  1526.06  1550.26  1612.27  1615.29
                             1700.51  1723.83  1739.52  1745.47  1907.11
                             1975.18  2055.85  2132.98  2149.50  2206.70
                             2315.82  2349.93  2402.30  2409.78  2487.97
                             3832.49  4596.52  4626.29  4642.45  4658.16
                             4941.46  5033.92  5369.61

 Zero-point correction=                           0.146321 (Hartree/Particle)
 Thermal correction to Energy=                    0.154551
 Thermal correction to Enthalpy=                  0.155496
 Thermal correction to Gibbs Free Energy=         0.113246
 Sum of electronic and zero-point Energies=           -476.443831
 Sum of electronic and thermal Energies=              -476.435601
 Sum of electronic and thermal Enthalpies=            -476.434657
 Sum of electronic and thermal Free Energies=         -476.476906

                     E (Thermal)             CV                S
                      KCal/Mol        Cal/Mol-Kelvin    Cal/Mol-Kelvin
 Total                   96.982             32.347             88.921
 Electronic               0.000              0.000              0.000
 Translational            0.889              2.981             40.679
 Rotational               0.889              2.981             29.412
 Vibrational             95.205             26.385             18.830
 Vibration     1          0.601              1.958              3.704
 Vibration     2          0.612              1.922              2.928
 Vibration     3          0.652              1.795              1.880
 Vibration     4          0.678              1.717              1.554
 Vibration     5          0.711              1.621              1.274
 Vibration     6          0.741              1.536              1.084
 Vibration     7          0.787              1.416              0.876
 Vibration     8          0.792              1.402              0.855
 Vibration     9          0.845              1.273              0.685
 Vibration    10          0.858              1.245              0.652
 Vibration    11          0.918              1.112              0.519

 Optimization completed.
    -- Stationary point found.
 Normal termination of Gaussian 09 at Tue Dec 17 20:49:02 2024.
