 Gaussian 09, Revision E.01,
 Gaussian 09:  ES64L-G09RevE.01 30-Nov-2015

 -----------------------------------------------------
 # opt freq b3pw91/6-31+g(d,p) EmpiricalDispersion=GD3
 -----------------------------------------------------

 ----------
 [No Title]
 ----------
 Symbolic Z-matrix:
 Charge =  1 Multiplicity = 1

 SCF Done:  E(RB3PW91) =  -476.408632960     A.U. after   14 cycles
 SCF Done:  E(RB3PW91) =  -476.408636285     A.U. after   11 cycles
 SCF Done:  E(RB3PW91) =  -476.408634652     A.U. after   10 cycles
 SCF Done:  E(RB3PW91) =  -476.408638062     A.U. after   10 cycles
 SCF Done:  E(RB3PW91) =  -476.408638154     A.U. after    9 cycles
 SCF Done:  E(RB3PW91) =  -476.408638159     A.U. after    9 cycles
 Optimization completed.
    -- Stationary point found.
 Normal termination of Gaussian 09 at Thu Dec 19 12:20:39 2024.

 ----------------------------------------------------------------------
 #N Geom=AllCheck Guess=TCheck SCRF=Check GenChk RB3PW91/6-31+G(d,p) Fr
 eq
 ----------------------------------------------------------------------

 Structure from the checkpoint file:  "B3PWD3Anthranilicyang.chk"
 ----------
 [No Title]
 ----------
 Charge =  1 Multiplicity = 1

                         Standard orientation:
 ---------------------------------------------------------------------
 Center     Atomic      Atomic             Coordinates (Angstroms)
 Number     Number       Type             X           Y           Z
 ---------------------------------------------------------------------
      1          6           0       -1.940750   -1.466986    0.000054
      2          6           0       -2.618507   -0.248497   -0.000069
      3          6           0       -1.906671    0.953680   -0.000082
      4          6           0       -0.523189    0.910845    0.000030
      5          6           0        0.184700   -0.303278    0.000105
      6          6           0       -0.548672   -1.496140    0.000135
      7          6           0        1.667418   -0.304916    0.000077
      8          8           0        2.213873   -1.504074    0.000095
      9          7           0        0.248743    2.167369    0.000142
     10          8           0        2.341130    0.730947   -0.000462
     11          1           0       -2.497733   -2.398138    0.000066
     12          1           0       -3.703565   -0.225899   -0.000137
     13          1           0       -2.432633    1.904775   -0.000138
     14          1           0       -0.018116   -2.441839    0.000190
     15          1           0        3.183215   -1.420672   -0.000148
     16          1           0        0.058278    2.735605    0.829420
     17          1           0        1.284578    1.855879    0.000539
     18          1           0        0.058780    2.735469   -0.829346
 ---------------------------------------------------------------------

 SCF Done:  E(RB3PW91) =  -476.408638159     A.U. after    1 cycles

 The electronic state is 1-A.
 Alpha  occ. eigenvalues --  -19.36740 -19.32285 -14.61515 -10.49847 -10.42201
 Alpha  occ. eigenvalues --  -10.38193 -10.36620 -10.35982 -10.35850 -10.34985
 Alpha  occ. eigenvalues --   -1.30043  -1.21388  -1.17864  -1.04330  -0.95442
 Alpha  occ. eigenvalues --   -0.93029  -0.84660  -0.81342  -0.78424  -0.75902
 Alpha  occ. eigenvalues --   -0.74213  -0.71600  -0.68745  -0.67164  -0.63599
 Alpha  occ. eigenvalues --   -0.63071  -0.61748  -0.61017  -0.57239  -0.54893
 Alpha  occ. eigenvalues --   -0.54221  -0.52845  -0.50441  -0.47195  -0.43957
 Alpha  occ. eigenvalues --   -0.43753
 Alpha virt. eigenvalues --   -0.23192  -0.19182  -0.15673  -0.12608  -0.11184
 Alpha virt. eigenvalues --   -0.10336  -0.08918  -0.08301  -0.07156  -0.06254
 Alpha virt. eigenvalues --   -0.05266  -0.05100  -0.04192  -0.03159  -0.02907

 Mulliken charges:
               1
     1  C   -0.030234
     2  C   -0.470544
     3  C    0.693182
     4  C   -1.419514
     5  C    1.299306
     6  C   -0.784281
     7  C    0.711929
     8  O   -0.414356
     9  N   -0.633556
    10  O   -0.464113
    11  H    0.204422
    12  H    0.205384
    13  H    0.189580
    14  H    0.216086
    15  H    0.421375
    16  H    0.412277
    17  H    0.450780
    18  H    0.412277
 Sum of Mulliken charges =   1.00000

 Dipole moment (field-independent basis, Debye):
    X=             -1.0519    Y=              4.1200    Z=              0.0010  Tot=              4.2522
 Quadrupole moment (field-independent basis, Debye-Ang):
   XX=            -35.4469   YY=            -28.5537   ZZ=            -56.2389
   XY=             -3.6143   XZ=              0.0018   YZ=              0.0023

  Exact polarizability: 116.509   0.513 100.905  -0.001  -0.003  47.695
 Approx polarizability: 181.286   2.078 168.079  -0.001  -0.009  70.368

                      1                      2                      3
                      A                      A                      A
 Frequencies --     89.7177               130.7592               230.3088
 Red. masses --      6.1137                 3.7038                 3.2147
 Frc consts  --      0.0290                 0.0373                 0.1005
 IR Inten    --      6.3453                 1.6168                20.1725

                      4                      5                      6
                      A                      A                      A
 Frequencies --    277.1537               345.9987               373.2546
 Red. masses --      5.1918                 1.1917                 3.9123
 Frc consts  --      0.2350                 0.0841                 0.3211
 IR Inten    --     11.9588                 0.1104                72.5280

                      7                      8                      9
                      A                      A                      A
 Frequencies --    421.2079               434.8484               489.0821
 Red. masses --      3.0275                 8.0522                 3.1174
 Frc consts  --      0.3165                 0.8971                 0.4393
 IR Inten    --      9.8127                 3.3403                 5.7596

                     10                     11                     12
                      A                      A                      A
 Frequencies --    504.3248               562.8704               624.3982
 Red. masses --      4.6032                 6.3241                 1.2826
 Frc consts  --      0.6898                 1.1805                 0.2946
 IR Inten    --      3.5491                 2.8882                71.8997

                     13                     14                     15
                      A                      A                      A
 Frequencies --    661.8296               702.2167               757.8260
 Red. masses --      5.4839                 3.0530                 4.0378
 Frc consts  --      1.4153                 0.8870                 1.3663
 IR Inten    --     82.4630                42.0770                51.7432

                     16                     17                     18
                      A                      A                      A
 Frequencies --    760.6778               809.0504               831.8456
 Red. masses --      1.5911                 2.6342                 5.3096
 Frc consts  --      0.5424                 1.0159                 2.1647
 IR Inten    --     97.8608                 0.8145                14.2266

                     19                     20                     21
                      A                      A                      A
 Frequencies --    898.3879               992.0642              1030.3079
 Red. masses --      1.3600                 1.3686                 1.3514
 Frc consts  --      0.6467                 0.7936                 0.8452
 IR Inten    --      0.0356                 0.5531                 0.0001

                     22                     23                     24
                      A                      A                      A
 Frequencies --   1066.8162              1083.6420              1128.1138
 Red. masses --      2.3480                 2.2718                 1.3135
 Frc consts  --      1.5745                 1.5718                 0.9849
 IR Inten    --     11.5577                17.3727                 8.7674

                     25                     26                     27
                      A                      A                      A
 Frequencies --   1129.2307              1186.4306              1208.0888
 Red. masses --      2.0714                 1.6664                 1.6640
 Frc consts  --      1.5562                 1.3820                 1.4308
 IR Inten    --     76.0924                 5.2207               185.5652

                     28                     29                     30
                      A                      A                      A
 Frequencies --   1210.5573              1219.3672              1324.2388
 Red. masses --      1.2480                 2.0539                 1.4571
 Frc consts  --      1.0776                 1.7992                 1.5055
 IR Inten    --      7.0191                30.2870                 5.0940

                     31                     32                     33
                      A                      A                      A
 Frequencies --   1393.1498              1440.7064              1481.7214
 Red. masses --      5.8501                 2.1061                 1.8500
 Frc consts  --      6.6898                 2.5756                 2.3931
 IR Inten    --     26.0207               314.2322               235.8983

                     34                     35                     36
                      A                      A                      A
 Frequencies --   1494.9171              1539.3087              1611.8931
 Red. masses --      2.3260                 2.6119                 1.3586
 Frc consts  --      3.0626                 3.6463                 2.0798
 IR Inten    --     40.8048                87.3477                20.8849

                     37                     38                     39
                      A                      A                      A
 Frequencies --   1644.3054              1671.2788              1680.3965
 Red. masses --      3.6179                 1.0428                 4.2975
 Frc consts  --      5.7634                 1.7161                 7.1497
 IR Inten    --      7.9075                38.7956                63.2107

                     40                     41                     42
                      A                      A                      A
 Frequencies --   1746.5715              2558.3695              3206.7876
 Red. masses --      4.7412                 1.1000                 1.0920
 Frc consts  --      8.5215                 4.2420                 6.6162
 IR Inten    --    247.5632               715.6078                 0.5274

                     43                     44                     45
                      A                      A                      A
 Frequencies --   3226.4576              3237.3990              3246.7773
 Red. masses --      1.0907                 1.0950                 1.0968
 Frc consts  --      6.6895                 6.7620                 6.8123
 IR Inten    --      0.1088                 1.3975                 3.0177

                     46                     47                     48
                      A                      A                      A
 Frequencies --   3459.8425              3530.3891              3761.8127
 Red. masses --      1.0521                 1.0947                 1.0652
 Frc consts  --      7.4200                 8.0388                 8.8811
 IR Inten    --     98.0670               102.4072               223.8636

 - Thermochemistry -
 -------------------
 Temperature   298.150 Kelvin.  Pressure   1.00000 Atm.
 Atom     1 has atomic number  6 and mass  12.00000

 Molecular mass:   138.05550 amu.
 Principal axes and moments of inertia in atomic units:
                           1         2         3
     Eigenvalues --   801.561301492.445872284.10445
           X            1.00000   0.00169   0.00002
           Y           -0.00169   1.00000   0.00003
           Z           -0.00002  -0.00003   1.00000
 This molecule is an asymmetric top.
 Rotational symmetry number  1.
 Warning -- assumption of classical behavior for rotation
           may cause significant error
 Rotational temperatures (Kelvin)      0.10806     0.05803     0.03792
 Rotational constants (GHZ):           2.25153     1.20925     0.79013
 Zero-point vibrational energy     385297.4 (Joules/Mol)
                                   92.08830 (Kcal/Mol)
 Warning -- explicit consideration of  11 degrees of freedom as
           vibrations may cause significant error
 Vibrational temperatures:    129.08   188.13   331.36   398.76   497.81
          (Kelvin)            537.03   606.02   625.65   703.68   725.61
                              809.84   898.37   952.22  1010.33  1090.34
                             1094.44  1164.04  1196.84  1292.58  1427.36
                             1482.38  1534.91  1559.12  1623.10  1624.71
                             1707.01  1738.17  1741.72  1754.40  1905.28
                             2004.43  2072.85  2131.86  2150.85  2214.72
                             2319.15  2365.79  2404.59  2417.71  2512.92
                             3680.92  4613.85  4642.15  4657.89  4671.38
                             4977.94  5079.44  5412.40

 Zero-point correction=                           0.146752 (Hartree/Particle)
 Thermal correction to Energy=                    0.154940
 Thermal correction to Enthalpy=                  0.155884
 Thermal correction to Gibbs Free Energy=         0.113729
 Sum of electronic and zero-point Energies=           -476.261886
 Sum of electronic and thermal Energies=              -476.253698
 Sum of electronic and thermal Enthalpies=            -476.252754
 Sum of electronic and thermal Free Energies=         -476.294909

                     E (Thermal)             CV                S
                      KCal/Mol        Cal/Mol-Kelvin    Cal/Mol-Kelvin
 Total                   97.226             32.212             88.723
 Electronic               0.000              0.000              0.000
 Translational            0.889              2.981             40.679
 Rotational               0.889              2.981             29.392
 Vibrational             95.449             26.250             18.651
 Vibration     1          0.602              1.956              3.666
 Vibration     2          0.612              1.923              2.935
 Vibration     3          0.652              1.795              1.877
 Vibration     4          0.678              1.716              1.551
 Vibration     5          0.724              1.583              1.184
 Vibration     6          0.745              1.527              1.066
 Vibration     7          0.784              1.424              0.888
 Vibration     8          0.795              1.394              0.843
 Vibration     9          0.845              1.274              0.686
 Vibration    10          0.860              1.240              0.647
 Vibration    11          0.919              1.112              0.518

 Optimization completed.
    -- Stationary point found.
 Normal termination of Gaussian 09 at Thu Dec 19 12:21:54 2024.
