 Gaussian 09, Revision E.01,
 Gaussian 09:  ES64L-G09RevE.01 30-Nov-2015

 -----------------------------------------------------
 # opt freq b3pw91/6-31+g(d,p) EmpiricalDispersion=GD3
 -----------------------------------------------------

 ----------
 [No Title]
 ----------
 Symbolic Z-matrix:
 Charge =  0 Multiplicity = 1

 SCF Done:  E(RB3PW91) =  -476.052347616     A.U. after   15 cycles
 SCF Done:  E(RB3PW91) =  -476.052351435     A.U. after   11 cycles
 SCF Done:  E(RB3PW91) =  -476.052356295     A.U. after   10 cycles
 SCF Done:  E(RB3PW91) =  -476.052356050     A.U. after   10 cycles
 SCF Done:  E(RB3PW91) =  -476.052356928     A.U. after   10 cycles
 Optimization completed.
    -- Stationary point found.
 Normal termination of Gaussian 09 at Thu Dec 19 12:04:47 2024.

 ----------------------------------------------------------------------
 #N Geom=AllCheck Guess=TCheck SCRF=Check GenChk RB3PW91/6-31+G(d,p) Fr
 eq
 ----------------------------------------------------------------------

 Structure from the checkpoint file:  "B3PWD3Anthranilic.chk"
 ----------
 [No Title]
 ----------
 Charge =  0 Multiplicity = 1

                         Standard orientation:
 ---------------------------------------------------------------------
 Center     Atomic      Atomic             Coordinates (Angstroms)
 Number     Number       Type             X           Y           Z
 ---------------------------------------------------------------------
      1          6           0       -1.857439   -1.519380    0.000004
      2          6           0       -2.584362   -0.318618    0.000016
      3          6           0       -1.938778    0.903538    0.000018
      4          6           0       -0.526606    0.987454    0.000007
      5          6           0        0.212872   -0.231558   -0.000007
      6          6           0       -0.475514   -1.460683   -0.000007
      7          6           0        1.676680   -0.204376   -0.000025
      8          8           0        2.252190   -1.430237   -0.000014
      9          7           0        0.079078    2.202734    0.000016
     10          8           0        2.376155    0.804938   -0.000007
     11          1           0       -2.368954   -2.476210    0.000003
     12          1           0       -3.671028   -0.342680    0.000025
     13          1           0       -2.516485    1.824709    0.000029
     14          1           0        0.107963   -2.374809   -0.000018
     15          1           0        3.209134   -1.277567   -0.000009
     16          1           0        1.089583    2.248206   -0.000012
     17          1           0       -0.471635    3.043334   -0.000004
 ---------------------------------------------------------------------

 SCF Done:  E(RB3PW91) =  -476.052356928     A.U. after    1 cycles

 The electronic state is 1-A.
 Alpha  occ. eigenvalues --  -19.19685 -19.14123 -14.34636 -10.31645 -10.24398
 Alpha  occ. eigenvalues --  -10.19634 -10.19561 -10.19257 -10.18634 -10.17887
 Alpha  occ. eigenvalues --   -1.12107  -1.02640  -0.94303  -0.85663  -0.78062
 Alpha  occ. eigenvalues --   -0.74474  -0.67081  -0.63082  -0.60225  -0.54416
 Alpha  occ. eigenvalues --   -0.53152  -0.51523  -0.49680  -0.46313  -0.46122
 Alpha  occ. eigenvalues --   -0.44471  -0.43523  -0.40867  -0.39727  -0.37775
 Alpha  occ. eigenvalues --   -0.35932  -0.33425  -0.32512  -0.28985  -0.27003
 Alpha  occ. eigenvalues --   -0.21775
 Alpha virt. eigenvalues --   -0.05536  -0.00450   0.00905   0.01858   0.02691
 Alpha virt. eigenvalues --    0.04194   0.04276   0.05540   0.06416   0.06472
 Alpha virt. eigenvalues --    0.07902   0.08248   0.09270   0.10458   0.11037

 Mulliken charges:
               1
     1  C   -0.072924
     2  C   -0.541053
     3  C    0.606658
     4  C   -1.299044
     5  C    1.191655
     6  C   -0.704752
     7  C    0.739554
     8  O   -0.469245
     9  N   -0.609780
    10  O   -0.520525
    11  H    0.151612
    12  H    0.153122
    13  H    0.134034
    14  H    0.175234
    15  H    0.387949
    16  H    0.361218
    17  H    0.316286
 Sum of Mulliken charges =  -0.00000

 Dipole moment (field-independent basis, Debye):
    X=             -1.1429    Y=              0.5599    Z=             -0.0001  Tot=              1.2727
 Quadrupole moment (field-independent basis, Debye-Ang):
   XX=            -51.6541   YY=            -49.7592   ZZ=            -62.0735
   XY=             -5.3203   XZ=             -0.0001   YZ=             -0.0002

  Exact polarizability: 127.069   4.110 114.282  -0.000   0.001  52.640
 Approx polarizability: 193.187  11.900 192.857  -0.001   0.001  75.421

 ******    1 imaginary frequencies (negative Signs) ******

                      1                      2                      3
                      A                      A                      A
 Frequencies --    -45.6510                91.1293               182.9407
 Red. masses --      2.9860                 4.8178                 1.5990
 Frc consts  --      0.0037                 0.0236                 0.0315
 IR Inten    --     84.2634                15.2641                82.5867

                      4                      5                      6
                      A                      A                      A
 Frequencies --    235.8521               257.5415               369.8148
 Red. masses --      4.2860                 5.7253                 5.0646
 Frc consts  --      0.1405                 0.2237                 0.4081
 IR Inten    --      5.8253                 1.2125                 8.3728

                      7                      8                      9
                      A                      A                      A
 Frequencies --    420.0926               425.6895               513.9912
 Red. masses --      6.0229                 3.0111                 4.1996
 Frc consts  --      0.6262                 0.3215                 0.6537
 IR Inten    --      1.1304                 6.5473                 4.8517

                     10                     11                     12
                      A                      A                      A
 Frequencies --    536.4556               567.4854               576.4074
 Red. masses --      2.8528                 6.8969                 1.1950
 Frc consts  --      0.4837                 1.3086                 0.2339
 IR Inten    --     13.1565                 1.1321                95.6012

                     13                     14                     15
                      A                      A                      A
 Frequencies --    623.8743               648.1024               715.7923
 Red. masses --      1.0389                 5.3159                 3.1491
 Frc consts  --      0.2382                 1.3156                 0.9506
 IR Inten    --     22.0391                50.9855                44.3703

                     16                     17                     18
                      A                      A                      A
 Frequencies --    754.0482               761.8088               804.7682
 Red. masses --      4.1929                 1.4883                 3.4969
 Frc consts  --      1.4046                 0.5089                 1.3344
 IR Inten    --     15.3982                60.2348                 2.3889

                     19                     20                     21
                      A                      A                      A
 Frequencies --    858.5941               865.9554               968.6782
 Red. masses --      1.7404                 5.3720                 1.3584
 Frc consts  --      0.7559                 2.3734                 0.7510
 IR Inten    --      3.6052                 5.9858                 0.6589

                     22                     23                     24
                      A                      A                      A
 Frequencies --    989.2522              1042.0527              1081.8094
 Red. masses --      1.3006                 2.0002                 1.9218
 Frc consts  --      0.7499                 1.2797                 1.3251
 IR Inten    --      0.0115                 3.7679                12.9561

                     25                     26                     27
                      A                      A                      A
 Frequencies --   1102.6723              1183.5926              1194.6266
 Red. masses --      3.9187                 1.3806                 1.2893
 Frc consts  --      2.8073                 1.1395                 1.0841
 IR Inten    --    121.3491                90.4932               165.2283

                     28                     29                     30
                      A                      A                      A
 Frequencies --   1208.0810              1317.6817              1350.3000
 Red. masses --      1.3641                 1.7302                 2.0935
 Frc consts  --      1.1730                 1.7699                 2.2489
 IR Inten    --    108.1982                 2.3220                48.8008

                     31                     32                     33
                      A                      A                      A
 Frequencies --   1384.5706              1419.8432              1493.9162
 Red. masses --      3.1286                 5.8482                 2.6605
 Frc consts  --      3.5337                 6.9463                 3.4983
 IR Inten    --    128.8690                46.4547                 7.1314

                     34                     35                     36
                      A                      A                      A
 Frequencies --   1527.6490              1603.9277              1633.0959
 Red. masses --      2.2807                 2.4112                 2.5334
 Frc consts  --      3.1359                 3.6547                 3.9808
 IR Inten    --     38.4395               117.0026               190.6786

                     37                     38                     39
                      A                      A                      A
 Frequencies --   1678.4116              1763.4733              3184.1148
 Red. masses --      4.6210                 7.3231                 1.0873
 Frc consts  --      7.6697                13.4178                 6.4948
 IR Inten    --    133.3038               422.0116                 7.9353

                     40                     41                     42
                      A                      A                      A
 Frequencies --   3202.5515              3219.2283              3236.7861
 Red. masses --      1.0922                 1.0920                 1.0956
 Frc consts  --      6.6003                 6.6677                 6.7626
 IR Inten    --     15.3227                 7.7811                 5.4172

                     43                     44                     45
                      A                      A                      A
 Frequencies --   3569.5265              3753.1021              3805.7128
 Red. masses --      1.0517                 1.0999                 1.0646
 Frc consts  --      7.8950                 9.1285                 9.0849
 IR Inten    --    113.1642                79.4933               104.5143

 - Thermochemistry -
 -------------------
 Temperature   298.150 Kelvin.  Pressure   1.00000 Atm.
 Atom     1 has atomic number  6 and mass  12.00000

 Molecular mass:   137.04768 amu.
 Principal axes and moments of inertia in atomic units:
                           1         2         3
     Eigenvalues --   784.190291484.799412268.98970
           X            0.99999  -0.00424   0.00001
           Y            0.00424   0.99999  -0.00001
           Z           -0.00001   0.00001   1.00000
 This molecule is an asymmetric top.
 Rotational symmetry number  1.
 Warning -- assumption of classical behavior for rotation
           may cause significant error
 Rotational temperatures (Kelvin)      0.11045     0.05833     0.03817
 Rotational constants (GHZ):           2.30141     1.21548     0.79539
    1 imaginary frequencies ignored.
 Zero-point vibrational energy     347664.7 (Joules/Mol)
                                   83.09386 (Kcal/Mol)
 Warning -- explicit consideration of  11 degrees of freedom as
           vibrations may cause significant error
 Vibrational temperatures:    131.11   263.21   339.34   370.54   532.08
          (Kelvin)            604.42   612.47   739.52   771.84   816.48
                              829.32   897.61   932.47  1029.86  1084.91
                             1096.07  1157.88  1235.32  1245.92  1393.71
                             1423.31  1499.28  1556.48  1586.50  1702.92
                             1718.80  1738.16  1895.85  1942.78  1992.09
                             2042.84  2149.41  2197.94  2307.69  2349.66
                             2414.86  2537.24  4581.23  4607.75  4631.75
                             4657.01  5135.75  5399.87  5475.56

 Zero-point correction=                           0.132418 (Hartree/Particle)
 Thermal correction to Energy=                    0.140295
 Thermal correction to Enthalpy=                  0.141239
 Thermal correction to Gibbs Free Energy=         0.099778
 Sum of electronic and zero-point Energies=           -475.919938
 Sum of electronic and thermal Energies=              -475.912062
 Sum of electronic and thermal Enthalpies=            -475.911118
 Sum of electronic and thermal Free Energies=         -475.952579

                     E (Thermal)             CV                S
                      KCal/Mol        Cal/Mol-Kelvin    Cal/Mol-Kelvin
 Total                   88.036             31.291             87.262
 Electronic               0.000              0.000              0.000
 Translational            0.889              2.981             40.657
 Rotational               0.889              2.981             29.359
 Vibrational             86.259             25.330             17.246
 Vibration     1          0.602              1.955              3.636
 Vibration     2          0.630              1.863              2.298
 Vibration     3          0.655              1.786              1.834
 Vibration     4          0.667              1.750              1.678
 Vibration     5          0.742              1.534              1.081
 Vibration     6          0.783              1.427              0.892
 Vibration     7          0.788              1.414              0.873
 Vibration     8          0.869              1.219              0.624
 Vibration     9          0.891              1.169              0.573
 Vibration    10          0.923              1.102              0.509
 Vibration    11          0.933              1.082              0.492

 Optimization completed.
    -- Stationary point found.
 Normal termination of Gaussian 09 at Thu Dec 19 12:05:29 2024.
