 Gaussian 09, Revision E.01,
 Gaussian 09:  ES64L-G09RevE.01 30-Nov-2015

 --------------------------------------------------------
 # opt freq cam-b3lyp/6-31+g(d,p) empiricaldispersion=gd3
 --------------------------------------------------------

 ----------
 [No Title]
 ----------
 Symbolic Z-matrix:
 Charge =  0 Multiplicity = 1

 SCF Done:  E(RCAM-B3LYP) =  -476.005351920     A.U. after   16 cycles
 SCF Done:  E(RCAM-B3LYP) =  -476.005480629     A.U. after   12 cycles
 SCF Done:  E(RCAM-B3LYP) =  -476.005485723     A.U. after   12 cycles
 SCF Done:  E(RCAM-B3LYP) =  -476.005498214     A.U. after   11 cycles
 SCF Done:  E(RCAM-B3LYP) =  -476.005496535     A.U. after   11 cycles
 SCF Done:  E(RCAM-B3LYP) =  -476.005499624     A.U. after   11 cycles
 Optimization completed.
    -- Stationary point found.
 Normal termination of Gaussian 09 at Tue Dec 17 20:39:14 2024.

 ----------------------------------------------------------------------
 #N Geom=AllCheck Guess=TCheck SCRF=Check GenChk RCAM-B3LYP/6-31+G(d,p)
  Freq
 ----------------------------------------------------------------------

 Structure from the checkpoint file:  "camb3lypD3Anthranilic.chk"
 ----------
 [No Title]
 ----------
 Charge =  0 Multiplicity = 1

                         Standard orientation:
 ---------------------------------------------------------------------
 Center     Atomic      Atomic             Coordinates (Angstroms)
 Number     Number       Type             X           Y           Z
 ---------------------------------------------------------------------
      1          6           0       -1.851159   -1.519291    0.000006
      2          6           0       -2.578158   -0.321262    0.000004
      3          6           0       -1.936180    0.898387    0.000007
      4          6           0       -0.526840    0.983231    0.000011
      5          6           0        0.210175   -0.229270    0.000011
      6          6           0       -0.473285   -1.458212    0.000008
      7          6           0        1.674673   -0.202429    0.000009
      8          8           0        2.250841   -1.424325   -0.000035
      9          7           0        0.073899    2.202747    0.000024
     10          8           0        2.372223    0.802639   -0.000026
     11          1           0       -2.360913   -2.475744    0.000005
     12          1           0       -3.663703   -0.347315    0.000002
     13          1           0       -2.512921    1.818794    0.000008
     14          1           0        0.112622   -2.369417    0.000008
     15          1           0        3.209083   -1.276563   -0.000061
     16          1           0        1.082613    2.258742    0.000019
     17          1           0       -0.483939    3.038826   -0.000002
 ---------------------------------------------------------------------

 SCF Done:  E(RCAM-B3LYP) =  -476.005499624     A.U. after    1 cycles

 The electronic state is 1-A.
 Alpha  occ. eigenvalues --  -19.28112 -19.22562 -14.42607 -10.40922 -10.33043
 Alpha  occ. eigenvalues --  -10.28138 -10.27957 -10.27827 -10.27017 -10.26275
 Alpha  occ. eigenvalues --   -1.20178  -1.10491  -1.01964  -0.93645  -0.85906
 Alpha  occ. eigenvalues --   -0.82127  -0.74453  -0.70376  -0.67308  -0.61387
 Alpha  occ. eigenvalues --   -0.59859  -0.58302  -0.56668  -0.53428  -0.53110
 Alpha  occ. eigenvalues --   -0.51128  -0.50130  -0.47510  -0.46492  -0.44150
 Alpha  occ. eigenvalues --   -0.42214  -0.39876  -0.38710  -0.35475  -0.32231
 Alpha  occ. eigenvalues --   -0.26663
 Alpha virt. eigenvalues --   -0.00880   0.02716   0.03636   0.04082   0.04518
 Alpha virt. eigenvalues --    0.05870   0.07054   0.07706   0.08208   0.09382
 Alpha virt. eigenvalues --    0.09477   0.09740   0.10766   0.12178   0.12736

 Mulliken charges:
               1
     1  C   -0.044266
     2  C   -0.425867
     3  C    0.366398
     4  C   -0.853233
     5  C    0.937965
     6  C   -0.715782
     7  C    0.831910
     8  O   -0.500787
     9  N   -0.660441
    10  O   -0.537716
    11  H    0.132080
    12  H    0.134413
    13  H    0.117726
    14  H    0.160420
    15  H    0.392458
    16  H    0.356359
    17  H    0.308361
 Sum of Mulliken charges =  -0.00000

 Dipole moment (field-independent basis, Debye):
    X=             -1.1665    Y=              0.4392    Z=             -0.0000  Tot=              1.2464
 Quadrupole moment (field-independent basis, Debye-Ang):
   XX=            -52.3989   YY=            -51.0114   ZZ=            -62.5834
   XY=             -5.4371   XZ=              0.0000   YZ=             -0.0000

  Exact polarizability: 123.904   4.193 112.958   0.000   0.000  53.370
 Approx polarizability: 141.134   8.209 142.853  -0.000   0.000  66.199

                      1                      2                      3
                      A                      A                      A
 Frequencies --     61.1218               103.1342               198.0931
 Red. masses --      6.5097                 3.4816                 1.3441
 Frc consts  --      0.0143                 0.0218                 0.0311
 IR Inten    --     32.7759                38.8201               121.1052

                      4                      5                      6
                      A                      A                      A
 Frequencies --    240.7386               261.9317               376.1285
 Red. masses --      4.5361                 5.7801                 5.2691
 Frc consts  --      0.1549                 0.2336                 0.4392
 IR Inten    --      3.5084                 1.0587                 7.5631

                      7                      8                      9
                      A                      A                      A
 Frequencies --    424.3265               435.7394               519.8980
 Red. masses --      5.9220                 2.9824                 4.1375
 Frc consts  --      0.6282                 0.3336                 0.6589
 IR Inten    --      0.9788                 6.9454                 4.5816

                     10                     11                     12
                      A                      A                      A
 Frequencies --    547.1981               575.9326               585.2709
 Red. masses --      2.7908                 6.8617                 1.2019
 Frc consts  --      0.4923                 1.3410                 0.2426
 IR Inten    --     10.5058                 1.5198               102.1376

                     13                     14                     15
                      A                      A                      A
 Frequencies --    615.1420               657.3000               730.0566
 Red. masses --      1.0429                 5.2775                 2.9296
 Frc consts  --      0.2325                 1.3434                 0.9200
 IR Inten    --     17.0441                54.4851                52.2876

                     16                     17                     18
                      A                      A                      A
 Frequencies --    763.2190               779.1016               821.1954
 Red. masses --      4.1458                 1.5045                 3.3381
 Frc consts  --      1.4229                 0.5381                 1.3263
 IR Inten    --     17.4929                57.9780                 4.0428

                     19                     20                     21
                      A                      A                      A
 Frequencies --    875.7646               882.5690               996.3902
 Red. masses --      5.3079                 1.8036                 1.3632
 Frc consts  --      2.3985                 0.8277                 0.7974
 IR Inten    --      7.3839                 4.9481                 0.6142

                     22                     23                     24
                      A                      A                      A
 Frequencies --   1017.2540              1051.6378              1091.3989
 Red. masses --      1.3253                 1.9887                 1.8579
 Frc consts  --      0.8080                 1.2959                 1.3039
 IR Inten    --      0.0619                 6.7815                11.1237

                     25                     26                     27
                      A                      A                      A
 Frequencies --   1117.3814              1193.1034              1197.6983
 Red. masses --      3.9560                 1.3671                 1.3138
 Frc consts  --      2.9101                 1.1466                 1.1104
 IR Inten    --    104.1869               165.7654               104.9836

                     28                     29                     30
                      A                      A                      A
 Frequencies --   1217.2117              1323.8222              1349.6928
 Red. masses --      1.4034                 2.1587                 1.9061
 Frc consts  --      1.2251                 2.2289                 2.0458
 IR Inten    --    139.2508                12.7875                52.8482

                     31                     32                     33
                      A                      A                      A
 Frequencies --   1387.5448              1421.8787              1510.8161
 Red. masses --      2.8562                 4.8308                 2.6687
 Frc consts  --      3.2399                 5.7544                 3.5890
 IR Inten    --     62.7738               111.0294                13.4020

                     34                     35                     36
                      A                      A                      A
 Frequencies --   1544.1531              1625.2331              1655.5076
 Red. masses --      2.3183                 2.0238                 2.7913
 Frc consts  --      3.2568                 3.1496                 4.5074
 IR Inten    --     39.7011               140.7627               192.0491

                     37                     38                     39
                      A                      A                      A
 Frequencies --   1700.2651              1789.4113              3197.7043
 Red. masses --      5.0255                 7.8312                 1.0880
 Frc consts  --      8.5598                14.7740                 6.5549
 IR Inten    --    112.8603               470.0254                 7.1776

                     40                     41                     42
                      A                      A                      A
 Frequencies --   3215.7709              3232.4783              3250.4832
 Red. masses --      1.0930                 1.0927                 1.0957
 Frc consts  --      6.6596                 6.7267                 6.8210
 IR Inten    --     13.1249                 6.3302                 3.9226

                     43                     44                     45
                      A                      A                      A
 Frequencies --   3595.2471              3760.7854              3813.0631
 Red. masses --      1.0499                 1.1017                 1.0647
 Frc consts  --      7.9956                 9.1804                 9.1207
 IR Inten    --    117.0957                85.6986               120.3530

 - Thermochemistry -
 -------------------
 Temperature   298.150 Kelvin.  Pressure   1.00000 Atm.
 Atom     1 has atomic number  6 and mass  12.00000

 Molecular mass:   137.04768 amu.
 Principal axes and moments of inertia in atomic units:
                           1         2         3
     Eigenvalues --   781.831731479.724872261.55659
           X            0.99999  -0.00442   0.00001
           Y            0.00442   0.99999  -0.00001
           Z           -0.00001   0.00001   1.00000
 This molecule is an asymmetric top.
 Rotational symmetry number  1.
 Warning -- assumption of classical behavior for rotation
           may cause significant error
 Rotational temperatures (Kelvin)      0.11078     0.05853     0.03830
 Rotational constants (GHZ):           2.30835     1.21965     0.79801
 Zero-point vibrational energy     351162.6 (Joules/Mol)
                                   83.92986 (Kcal/Mol)
 Warning -- explicit consideration of  13 degrees of freedom as
           vibrations may cause significant error
 Vibrational temperatures:     87.94   148.39   285.01   346.37   376.86
          (Kelvin)            541.16   610.51   626.93   748.02   787.30
                              828.64   842.07   885.05   945.71  1050.39
                             1098.10  1120.95  1181.52  1260.03  1269.82
                             1433.58  1463.60  1513.07  1570.28  1607.66
                             1716.61  1723.22  1751.29  1904.68  1941.90
                             1996.37  2045.76  2173.72  2221.69  2338.34
                             2381.90  2446.30  2574.56  4600.78  4626.77
                             4650.81  4676.71  5172.75  5410.92  5486.14

 Zero-point correction=                           0.133751 (Hartree/Particle)
 Thermal correction to Energy=                    0.142296
 Thermal correction to Enthalpy=                  0.143241
 Thermal correction to Gibbs Free Energy=         0.100021
 Sum of electronic and zero-point Energies=           -475.871749
 Sum of electronic and thermal Energies=              -475.863203
 Sum of electronic and thermal Enthalpies=            -475.862259
 Sum of electronic and thermal Free Energies=         -475.905479

                     E (Thermal)             CV                S
                      KCal/Mol        Cal/Mol-Kelvin    Cal/Mol-Kelvin
 Total                   89.292             32.821             90.964
 Electronic               0.000              0.000              0.000
 Translational            0.889              2.981             40.657
 Rotational               0.889              2.981             29.349
 Vibrational             87.515             26.859             20.957
 Vibration     1          0.597              1.973              4.421
 Vibration     2          0.605              1.947              3.394
 Vibration     3          0.637              1.843              2.151
 Vibration     4          0.658              1.778              1.797
 Vibration     5          0.669              1.742              1.649
 Vibration     6          0.747              1.521              1.055
 Vibration     7          0.786              1.417              0.877
 Vibration     8          0.796              1.392              0.840
 Vibration     9          0.875              1.206              0.610
 Vibration    10          0.902              1.146              0.550
 Vibration    11          0.932              1.083              0.493
 Vibration    12          0.942              1.063              0.476
 Vibration    13          0.975              1.000              0.424

 Optimization completed.
    -- Stationary point found.
 Normal termination of Gaussian 09 at Tue Dec 17 20:39:59 2024.
