 Gaussian 09, Revision E.01,
 Gaussian 09:  ES64L-G09RevE.01 30-Nov-2015

 --------------------------------------------------------
 # opt freq cam-b3lyp/6-31+g(d,p) empiricaldispersion=gd3
 --------------------------------------------------------

 ----------
 [No Title]
 ----------
 Symbolic Z-matrix:
 Charge =  1 Multiplicity = 1

 SCF Done:  E(RCAM-B3LYP) =  -476.356607043     A.U. after   16 cycles
 SCF Done:  E(RCAM-B3LYP) =  -476.356673011     A.U. after   13 cycles
 SCF Done:  E(RCAM-B3LYP) =  -476.356713585     A.U. after   13 cycles
 SCF Done:  E(RCAM-B3LYP) =  -476.356802371     A.U. after   12 cycles
 SCF Done:  E(RCAM-B3LYP) =  -476.356805446     A.U. after   11 cycles
 SCF Done:  E(RCAM-B3LYP) =  -476.356804659     A.U. after   11 cycles
 SCF Done:  E(RCAM-B3LYP) =  -476.356806842     A.U. after   10 cycles
 SCF Done:  E(RCAM-B3LYP) =  -476.356806727     A.U. after    9 cycles
 SCF Done:  E(RCAM-B3LYP) =  -476.356807016     A.U. after    9 cycles
 Optimization completed.
    -- Stationary point found.
 Normal termination of Gaussian 09 at Tue Dec 17 20:54:00 2024.

 ----------------------------------------------------------------------
 #N Geom=AllCheck Guess=TCheck SCRF=Check GenChk RCAM-B3LYP/6-31+G(d,p)
  Freq
 ----------------------------------------------------------------------

 Structure from the checkpoint file:  "camb3lypD3Anthranilicyang.chk"
 ----------
 [No Title]
 ----------
 Charge =  1 Multiplicity = 1

                         Standard orientation:
 ---------------------------------------------------------------------
 Center     Atomic      Atomic             Coordinates (Angstroms)
 Number     Number       Type             X           Y           Z
 ---------------------------------------------------------------------
      1          6           0       -1.928554   -1.472880   -0.000037
      2          6           0       -2.611298   -0.261602   -0.000009
      3          6           0       -1.907213    0.941596    0.000003
      4          6           0       -0.527062    0.906523   -0.000009
      5          6           0        0.185014   -0.300295   -0.000023
      6          6           0       -0.538656   -1.493644   -0.000041
      7          6           0        1.669426   -0.299329    0.000042
      8          8           0        2.217039   -1.495734   -0.000039
      9          7           0        0.230303    2.174332   -0.000026
     10          8           0        2.338289    0.733227    0.000145
     11          1           0       -2.479385   -2.406517   -0.000050
     12          1           0       -3.695475   -0.245310    0.000002
     13          1           0       -2.437826    1.889136    0.000016
     14          1           0       -0.002213   -2.434857   -0.000049
     15          1           0        3.187396   -1.416068    0.000015
     16          1           0        0.029260    2.739949    0.829504
     17          1           0        1.264032    1.891442    0.000122
     18          1           0        0.029534    2.739747   -0.829764
 ---------------------------------------------------------------------

 SCF Done:  E(RCAM-B3LYP) =  -476.356807016     A.U. after    1 cycles

 The electronic state is 1-A.
 Alpha  occ. eigenvalues --  -19.44893 -19.40377 -14.70154 -10.58872 -10.50725
 Alpha  occ. eigenvalues --  -10.46531 -10.45021 -10.44335 -10.44198 -10.43314
 Alpha  occ. eigenvalues --   -1.37797  -1.28987  -1.25813  -1.12334  -1.03151
 Alpha  occ. eigenvalues --   -1.00687  -0.91833  -0.88593  -0.85500  -0.82881
 Alpha  occ. eigenvalues --   -0.81205  -0.78551  -0.75480  -0.73955  -0.70616
 Alpha  occ. eigenvalues --   -0.69784  -0.68422  -0.67616  -0.63684  -0.61504
 Alpha  occ. eigenvalues --   -0.60473  -0.59044  -0.56610  -0.53369  -0.48959
 Alpha  occ. eigenvalues --   -0.48831
 Alpha virt. eigenvalues --   -0.18186  -0.14316  -0.13472  -0.08795  -0.08158
 Alpha virt. eigenvalues --   -0.07174  -0.06565  -0.06343  -0.05320  -0.04542
 Alpha virt. eigenvalues --   -0.03200  -0.02976  -0.01939  -0.01438  -0.00530

 Mulliken charges:
               1
     1  C    0.012159
     2  C   -0.351971
     3  C    0.483820
     4  C   -0.961105
     5  C    1.014947
     6  C   -0.808558
     7  C    0.789269
     8  O   -0.446075
     9  N   -0.682632
    10  O   -0.485589
    11  H    0.184150
    12  H    0.185079
    13  H    0.172502
    14  H    0.200472
    15  H    0.424047
    16  H    0.409896
    17  H    0.449681
    18  H    0.409909
 Sum of Mulliken charges =   1.00000

 Dipole moment (field-independent basis, Debye):
    X=             -1.1260    Y=              4.2818    Z=             -0.0003  Tot=              4.4274
 Quadrupole moment (field-independent basis, Debye-Ang):
   XX=            -36.6824   YY=            -29.0787   ZZ=            -56.6610
   XY=             -3.7476   XZ=             -0.0004   YZ=             -0.0007

  Exact polarizability: 113.546   0.694 100.007   0.000   0.001  48.302
 Approx polarizability: 133.506   1.144 128.640   0.000   0.002  61.887

                      1                      2                      3
                      A                      A                      A
 Frequencies --     89.2990               133.8739               233.7717
 Red. masses --      5.9834                 3.6683                 3.1491
 Frc consts  --      0.0281                 0.0387                 0.1014
 IR Inten    --      6.7752                 1.8176                19.6044

                      4                      5                      6
                      A                      A                      A
 Frequencies --    278.1290               328.7802               373.5454
 Red. masses --      5.1983                 1.1974                 3.8637
 Frc consts  --      0.2369                 0.0763                 0.3176
 IR Inten    --     11.6523                 0.4913                67.6155

                      7                      8                      9
                      A                      A                      A
 Frequencies --    430.8569               435.0122               497.8044
 Red. masses --      3.0069                 8.1285                 3.1307
 Frc consts  --      0.3289                 0.9063                 0.4571
 IR Inten    --      9.8417                 2.7811                 5.1316

                     10                     11                     12
                      A                      A                      A
 Frequencies --    507.9098               570.2550               629.5284
 Red. masses --      4.5685                 6.2782                 1.2776
 Frc consts  --      0.6944                 1.2029                 0.2983
 IR Inten    --      4.2069                 3.0725                74.2139

                     13                     14                     15
                      A                      A                      A
 Frequencies --    668.3846               713.8092               762.9652
 Red. masses --      5.3965                 3.0114                 3.9978
 Frc consts  --      1.4204                 0.9040                 1.3711
 IR Inten    --     82.4289                49.7692                50.5048

                     16                     17                     18
                      A                      A                      A
 Frequencies --    774.6019               822.6187               840.0280
 Red. masses --      1.6031                 2.5547                 5.2385
 Frc consts  --      0.5667                 1.0186                 2.1779
 IR Inten    --     93.5130                 0.5361                13.9846

                     19                     20                     21
                      A                      A                      A
 Frequencies --    917.7573              1013.8911              1053.9141
 Red. masses --      1.3694                 1.3723                 1.3648
 Frc consts  --      0.6796                 0.8312                 0.8931
 IR Inten    --      0.0334                 0.5076                 0.0008

                     22                     23                     24
                      A                      A                      A
 Frequencies --   1075.4763              1092.1976              1131.3040
 Red. masses --      2.2079                 2.0470                 1.3296
 Frc consts  --      1.5046                 1.4387                 1.0026
 IR Inten    --     16.5065                19.6814                 9.3499

                     25                     26                     27
                      A                      A                      A
 Frequencies --   1136.3132              1195.7157              1213.9763
 Red. masses --      2.3005                 1.6688                 1.1522
 Frc consts  --      1.7502                 1.4057                 1.0004
 IR Inten    --     63.1303                 2.5421                16.5124

                     28                     29                     30
                      A                      A                      A
 Frequencies --   1218.2515              1229.1302              1336.3932
 Red. masses --      1.7286                 2.4396                 1.5676
 Frc consts  --      1.5116                 2.1715                 1.6495
 IR Inten    --    182.7382                17.0637                 1.8229

                     31                     32                     33
                      A                      A                      A
 Frequencies --   1372.7935              1454.2217              1503.3772
 Red. masses --      4.3316                 2.4813                 1.6993
 Frc consts  --      4.8096                 3.0917                 2.2629
 IR Inten    --     29.2793               294.8308               216.6968

                     34                     35                     36
                      A                      A                      A
 Frequencies --   1514.9223              1559.8802              1624.4201
 Red. masses --      2.1011                 2.6950                 1.2190
 Frc consts  --      2.8410                 3.8636                 1.8951
 IR Inten    --     74.9674                79.5580                22.6990

                     37                     38                     39
                      A                      A                      A
 Frequencies --   1668.7035              1682.3497              1705.5387
 Red. masses --      4.5140                 1.0436                 4.9282
 Frc consts  --      7.4057                 1.7403                 8.4461
 IR Inten    --      3.1932                41.4092                59.6596

                     40                     41                     42
                      A                      A                      A
 Frequencies --   1772.1180              2697.5154              3216.9511
 Red. masses --      5.5944                 1.0921                 1.0928
 Frc consts  --     10.3512                 4.6822                 6.6630
 IR Inten    --    291.8761               680.0735                 0.5608

                     43                     44                     45
                      A                      A                      A
 Frequencies --   3238.1135              3248.9436              3258.7215
 Red. masses --      1.0915                 1.0958                 1.0969
 Frc consts  --      6.7429                 6.8147                 6.8631
 IR Inten    --      0.0960                 1.8351                 4.0298

                     46                     47                     48
                      A                      A                      A
 Frequencies --   3462.0153              3526.5996              3766.0844
 Red. masses --      1.0528                 1.0948                 1.0652
 Frc consts  --      7.4346                 8.0220                 8.9018
 IR Inten    --    111.9490               110.6212               238.2114

 - Thermochemistry -
 -------------------
 Temperature   298.150 Kelvin.  Pressure   1.00000 Atm.
 Atom     1 has atomic number  6 and mass  12.00000

 Molecular mass:   138.05550 amu.
 Principal axes and moments of inertia in atomic units:
                           1         2         3
     Eigenvalues --   801.450801487.925632279.46775
           X            1.00000   0.00114  -0.00001
           Y           -0.00114   1.00000  -0.00001
           Z            0.00001   0.00001   1.00000
 This molecule is an asymmetric top.
 Rotational symmetry number  1.
 Warning -- assumption of classical behavior for rotation
           may cause significant error
 Rotational temperatures (Kelvin)      0.10807     0.05821     0.03800
 Rotational constants (GHZ):           2.25184     1.21292     0.79174
 Zero-point vibrational energy     388659.3 (Joules/Mol)
                                   92.89180 (Kcal/Mol)
 Warning -- explicit consideration of  11 degrees of freedom as
           vibrations may cause significant error
 Vibrational temperatures:    128.48   192.61   336.34   400.17   473.04
          (Kelvin)            537.45   619.91   625.88   716.23   730.77
                              820.47   905.75   961.66  1027.01  1097.74
                             1114.48  1183.56  1208.61  1320.45  1458.76
                             1516.35  1547.37  1571.43  1627.69  1634.90
                             1720.37  1746.64  1752.79  1768.44  1922.77
                             1975.14  2092.30  2163.02  2179.63  2244.32
                             2337.18  2400.89  2420.52  2453.89  2549.68
                             3881.12  4628.47  4658.92  4674.50  4688.57
                             4981.06  5073.98  5418.55

 Zero-point correction=                           0.148033 (Hartree/Particle)
 Thermal correction to Energy=                    0.156167
 Thermal correction to Enthalpy=                  0.157111
 Thermal correction to Gibbs Free Energy=         0.115042
 Sum of electronic and zero-point Energies=           -476.208775
 Sum of electronic and thermal Energies=              -476.200640
 Sum of electronic and thermal Enthalpies=            -476.199696
 Sum of electronic and thermal Free Energies=         -476.241765

                     E (Thermal)             CV                S
                      KCal/Mol        Cal/Mol-Kelvin    Cal/Mol-Kelvin
 Total                   97.996             31.908             88.543
 Electronic               0.000              0.000              0.000
 Translational            0.889              2.981             40.679
 Rotational               0.889              2.981             29.387
 Vibrational             96.219             25.947             18.477
 Vibration     1          0.602              1.957              3.675
 Vibration     2          0.613              1.920              2.890
 Vibration     3          0.654              1.789              1.850
 Vibration     4          0.679              1.714              1.545
 Vibration     5          0.712              1.618              1.266
 Vibration     6          0.745              1.526              1.065
 Vibration     7          0.792              1.403              0.856
 Vibration     8          0.796              1.394              0.842
 Vibration     9          0.853              1.255              0.664
 Vibration    10          0.863              1.232              0.639
 Vibration    11          0.926              1.096              0.504

 Optimization completed.
    -- Stationary point found.
 Normal termination of Gaussian 09 at Tue Dec 17 20:54:45 2024.
