 Gaussian 09, Revision E.01,
 Gaussian 09:  ES64L-G09RevE.01 30-Nov-2015

 -----------------------------------------------------
 # opt freq pbepbe/6-31+g(d,p) empiricaldispersion=gd3
 -----------------------------------------------------

 ----------
 [No Title]
 ----------
 Symbolic Z-matrix:
 Charge =  0 Multiplicity = 1

 SCF Done:  E(RPBE-PBE) =  -475.674245090     A.U. after   16 cycles
 SCF Done:  E(RPBE-PBE) =  -475.675627852     A.U. after   12 cycles
 SCF Done:  E(RPBE-PBE) =  -475.675658997     A.U. after   12 cycles
 SCF Done:  E(RPBE-PBE) =  -475.675665125     A.U. after   11 cycles
 SCF Done:  E(RPBE-PBE) =  -475.675666889     A.U. after   11 cycles
 SCF Done:  E(RPBE-PBE) =  -475.675670863     A.U. after   10 cycles
 Optimization completed.
    -- Stationary point found.
 Normal termination of Gaussian 09 at Tue Dec 17 20:43:03 2024.

 ----------------------------------------------------------------------
 #N Geom=AllCheck Guess=TCheck SCRF=Check GenChk RPBEPBE/6-31+G(d,p) Fr
 eq
 ----------------------------------------------------------------------

 Structure from the checkpoint file:  "pbeD3Anthranilic.chk"
 ----------
 [No Title]
 ----------
 Charge =  0 Multiplicity = 1

                         Standard orientation:
 ---------------------------------------------------------------------
 Center     Atomic      Atomic             Coordinates (Angstroms)
 Number     Number       Type             X           Y           Z
 ---------------------------------------------------------------------
      1          6           0       -1.874737   -1.522016    0.000007
      2          6           0       -2.602832   -0.311932    0.000008
      3          6           0       -1.948734    0.915728    0.000009
      4          6           0       -0.528318    0.993607    0.000010
      5          6           0        0.214050   -0.236660    0.000005
      6          6           0       -0.483593   -1.470212    0.000004
      7          6           0        1.680787   -0.207889   -0.000005
      8          8           0        2.264454   -1.447668   -0.000036
      9          7           0        0.092944    2.208394    0.000022
     10          8           0        2.389601    0.812550   -0.000010
     11          1           0       -2.393786   -2.483757    0.000006
     12          1           0       -3.697400   -0.332757    0.000009
     13          1           0       -2.525391    1.847044    0.000013
     14          1           0        0.102228   -2.392315    0.000001
     15          1           0        3.229291   -1.274119   -0.000048
     16          1           0        1.114915    2.232064    0.000012
     17          1           0       -0.452639    3.062270   -0.000005
 ---------------------------------------------------------------------

 SCF Done:  E(RPBE-PBE) =  -475.675670863     A.U. after    1 cycles

 The electronic state is 1-A.
 Alpha  occ. eigenvalues --  -18.82967 -18.77689 -14.02951 -10.03292  -9.96692
 Alpha  occ. eigenvalues --   -9.92375  -9.92060  -9.91739  -9.91370  -9.90616
 Alpha  occ. eigenvalues --   -1.01615  -0.92846  -0.85513  -0.77172  -0.70158
 Alpha  occ. eigenvalues --   -0.66830  -0.60060  -0.56483  -0.53749  -0.48526
 Alpha  occ. eigenvalues --   -0.47377  -0.45748  -0.43501  -0.40731  -0.40296
 Alpha  occ. eigenvalues --   -0.39159  -0.38244  -0.35510  -0.34826  -0.32881
 Alpha  occ. eigenvalues --   -0.31246  -0.28874  -0.27877  -0.24010  -0.23797
 Alpha  occ. eigenvalues --   -0.18881
 Alpha virt. eigenvalues --   -0.08205  -0.03307  -0.01637  -0.00638   0.00298
 Alpha virt. eigenvalues --    0.00637   0.01958   0.03363   0.04058   0.04204
 Alpha virt. eigenvalues --    0.05690   0.06295   0.06954   0.07956   0.08587

 Mulliken charges:
               1
     1  C    0.002652
     2  C   -0.534845
     3  C    0.464968
     4  C   -1.141367
     5  C    1.226782
     6  C   -0.847837
     7  C    0.726557
     8  O   -0.432281
     9  N   -0.592978
    10  O   -0.486186
    11  H    0.141485
    12  H    0.143017
    13  H    0.126608
    14  H    0.166084
    15  H    0.376060
    16  H    0.350668
    17  H    0.310612
 Sum of Mulliken charges =   0.00000

 Dipole moment (field-independent basis, Debye):
    X=             -1.1387    Y=              0.7125    Z=             -0.0000  Tot=              1.3432
 Quadrupole moment (field-independent basis, Debye-Ang):
   XX=            -52.6341   YY=            -50.3101   ZZ=            -62.6521
   XY=             -5.0547   XZ=             -0.0001   YZ=             -0.0001

  Exact polarizability: 136.626   3.414 120.911   0.000  -0.001  55.237
 Approx polarizability: 264.565  13.863 261.926  -0.001   0.001  88.926

 ******    1 imaginary frequencies (negative Signs) ******

                      1                      2                      3
                      A                      A                      A
 Frequencies --    -40.6869                90.5956               185.6324
 Red. masses --      3.0356                 5.3225                 1.5855
 Frc consts  --      0.0030                 0.0257                 0.0322
 IR Inten    --     75.0690                 9.1363                78.7097

                      4                      5                      6
                      A                      A                      A
 Frequencies --    229.1401               249.3416               359.2164
 Red. masses --      3.9833                 5.6915                 4.8958
 Frc consts  --      0.1232                 0.2085                 0.3722
 IR Inten    --      8.6524                 1.0778                 9.7712

                      7                      8                      9
                      A                      A                      A
 Frequencies --    408.4193               412.7952               495.7015
 Red. masses --      6.0835                 3.0372                 4.2438
 Frc consts  --      0.5979                 0.3049                 0.6144
 IR Inten    --      1.2115                 5.5879                 5.2088

                     10                     11                     12
                      A                      A                      A
 Frequencies --    518.2637               550.8069               566.3615
 Red. masses --      2.9092                 6.8621                 1.1924
 Frc consts  --      0.4604                 1.2266                 0.2253
 IR Inten    --     15.0514                 0.9238                83.4422

                     13                     14                     15
                      A                      A                      A
 Frequencies --    625.8258               635.1235               691.2345
 Red. masses --      5.2474                 1.0394                 3.1990
 Frc consts  --      1.2109                 0.2470                 0.9006
 IR Inten    --     45.6434                28.2454                43.0294

                     16                     17                     18
                      A                      A                      A
 Frequencies --    728.8540               734.7504               772.3238
 Red. masses --      4.2871                 1.4946                 3.2571
 Frc consts  --      1.3418                 0.4754                 1.1447
 IR Inten    --      9.2186                46.4371                 0.6658

                     19                     20                     21
                      A                      A                      A
 Frequencies --    825.3763               841.5832               924.2357
 Red. masses --      1.7804                 5.4000                 1.3564
 Frc consts  --      0.7146                 2.2534                 0.6827
 IR Inten    --      2.1738                 4.5598                 0.6158

                     22                     23                     24
                      A                      A                      A
 Frequencies --    944.5554              1012.6226              1046.1611
 Red. masses --      1.2850                 2.0310                 2.3411
 Frc consts  --      0.6755                 1.2271                 1.5096
 IR Inten    --      0.0006                 2.6989                55.4943

                     25                     26                     27
                      A                      A                      A
 Frequencies --   1059.0751              1142.5289              1156.4561
 Red. masses --      2.8628                 1.3399                 1.1597
 Frc consts  --      1.8919                 1.0306                 0.9138
 IR Inten    --    117.9286                84.4896                78.3171

                     28                     29                     30
                      A                      A                      A
 Frequencies --   1169.2960              1275.0248              1317.2836
 Red. masses --      1.5079                 1.6310                 2.0899
 Frc consts  --      1.2147                 1.5622                 2.1366
 IR Inten    --    138.8503                 2.0860                34.8445

                     31                     32                     33
                      A                      A                      A
 Frequencies --   1340.1715              1389.2311              1446.8829
 Red. masses --      3.1656                 7.3114                 2.6046
 Frc consts  --      3.3498                 8.3138                 3.2126
 IR Inten    --    144.9464                 5.1033                 2.0091

                     34                     35                     36
                      A                      A                      A
 Frequencies --   1476.4128              1544.6286              1576.1973
 Red. masses --      2.2273                 2.4174                 3.0234
 Frc consts  --      2.8605                 3.3982                 4.4256
 IR Inten    --     29.8138               132.9584               169.6320

                     37                     38                     39
                      A                      A                      A
 Frequencies --   1622.7195              1685.6714              3106.6652
 Red. masses --      4.7147                 6.5115                 1.0866
 Frc consts  --      7.3146                10.9012                 6.1788
 IR Inten    --    113.3057               364.7577                 8.7857

                     40                     41                     42
                      A                      A                      A
 Frequencies --   3124.9165              3141.2230              3157.7897
 Red. masses --      1.0914                 1.0911                 1.0950
 Frc consts  --      6.2792                 6.3435                 6.4331
 IR Inten    --     15.8057                 8.2002                 5.7340

                     43                     44                     45
                      A                      A                      A
 Frequencies --   3432.6051              3641.9138              3653.6414
 Red. masses --      1.0545                 1.0964                 1.0644
 Frc consts  --      7.3208                 8.5680                 8.3715
 IR Inten    --    115.9511                74.7201                71.8836

 - Thermochemistry -
 -------------------
 Temperature   298.150 Kelvin.  Pressure   1.00000 Atm.
 Atom     1 has atomic number  6 and mass  12.00000

 Molecular mass:   137.04768 amu.
 Principal axes and moments of inertia in atomic units:
                           1         2         3
     Eigenvalues --   792.835911503.180322296.01623
           X            0.99999  -0.00386   0.00001
           Y            0.00386   0.99999  -0.00001
           Z           -0.00001   0.00001   1.00000
 This molecule is an asymmetric top.
 Rotational symmetry number  1.
 Warning -- assumption of classical behavior for rotation
           may cause significant error
 Rotational temperatures (Kelvin)      0.10925     0.05762     0.03772
 Rotational constants (GHZ):           2.27631     1.20062     0.78603
    1 imaginary frequencies ignored.
 Zero-point vibrational energy     336804.1 (Joules/Mol)
                                   80.49812 (Kcal/Mol)
 Warning -- explicit consideration of  11 degrees of freedom as
           vibrations may cause significant error
 Vibrational temperatures:    130.35   267.08   329.68   358.75   516.83
          (Kelvin)            587.62   593.92   713.20   745.66   792.49
                              814.87   900.42   913.80   994.53  1048.66
                             1057.14  1111.20  1187.53  1210.85  1329.77
                             1359.00  1456.94  1505.19  1523.77  1643.84
                             1663.88  1682.35  1834.47  1895.27  1928.21
                             1998.79  2081.74  2124.23  2222.37  2267.79
                             2334.73  2425.30  4469.79  4496.05  4519.51
                             4543.35  4938.75  5239.90  5256.77

 Zero-point correction=                           0.128282 (Hartree/Particle)
 Thermal correction to Energy=                    0.136356
 Thermal correction to Enthalpy=                  0.137300
 Thermal correction to Gibbs Free Energy=         0.095516
 Sum of electronic and zero-point Energies=           -475.547389
 Sum of electronic and thermal Energies=              -475.539315
 Sum of electronic and thermal Enthalpies=            -475.538370
 Sum of electronic and thermal Free Energies=         -475.580155

                     E (Thermal)             CV                S
                      KCal/Mol        Cal/Mol-Kelvin    Cal/Mol-Kelvin
 Total                   85.565             32.258             87.943
 Electronic               0.000              0.000              0.000
 Translational            0.889              2.981             40.657
 Rotational               0.889              2.981             29.394
 Vibrational             83.787             26.297             17.892
 Vibration     1          0.602              1.956              3.647
 Vibration     2          0.632              1.859              2.271
 Vibration     3          0.652              1.797              1.886
 Vibration     4          0.662              1.764              1.735
 Vibration     5          0.734              1.556              1.125
 Vibration     6          0.773              1.452              0.932
 Vibration     7          0.777              1.442              0.917
 Vibration     8          0.851              1.260              0.669
 Vibration     9          0.873              1.210              0.614
 Vibration    10          0.906              1.138              0.543
 Vibration    11          0.922              1.104              0.511

 Optimization completed.
    -- Stationary point found.
 Normal termination of Gaussian 09 at Tue Dec 17 20:43:41 2024.
