 Gaussian 09, Revision E.01,
 Gaussian 09:  ES64L-G09RevE.01 30-Nov-2015

 -----------------------------------------------------
 # opt freq pbepbe/6-31+g(d,p) empiricaldispersion=gd3
 -----------------------------------------------------

 ----------
 [No Title]
 ----------
 Symbolic Z-matrix:
 Charge =  1 Multiplicity = 1

 SCF Done:  E(RPBE-PBE) =  -476.025903507     A.U. after   14 cycles
 SCF Done:  E(RPBE-PBE) =  -476.027150258     A.U. after   12 cycles
 SCF Done:  E(RPBE-PBE) =  -476.026379459     A.U. after   13 cycles
 SCF Done:  E(RPBE-PBE) =  -476.027325279     A.U. after   10 cycles
 SCF Done:  E(RPBE-PBE) =  -476.027377792     A.U. after   12 cycles
 SCF Done:  E(RPBE-PBE) =  -476.027391176     A.U. after   11 cycles
 SCF Done:  E(RPBE-PBE) =  -476.027393291     A.U. after   11 cycles
 SCF Done:  E(RPBE-PBE) =  -476.027392669     A.U. after   11 cycles
 SCF Done:  E(RPBE-PBE) =  -476.027395502     A.U. after   11 cycles
 SCF Done:  E(RPBE-PBE) =  -476.027395285     A.U. after   10 cycles
 SCF Done:  E(RPBE-PBE) =  -476.027395667     A.U. after    9 cycles
 Optimization completed.
    -- Stationary point found.
 Normal termination of Gaussian 09 at Tue Dec 17 20:58:38 2024.

 ----------------------------------------------------------------------
 #N Geom=AllCheck Guess=TCheck SCRF=Check GenChk RPBEPBE/6-31+G(d,p) Fr
 eq
 ----------------------------------------------------------------------

 Structure from the checkpoint file:  "pbeD3Anthranilicyang.chk"
 ----------
 [No Title]
 ----------
 Charge =  1 Multiplicity = 1

                         Standard orientation:
 ---------------------------------------------------------------------
 Center     Atomic      Atomic             Coordinates (Angstroms)
 Number     Number       Type             X           Y           Z
 ---------------------------------------------------------------------
      1          6           0       -1.960566   -1.467784   -0.000020
      2          6           0       -2.636617   -0.237920   -0.000038
      3          6           0       -1.915156    0.968464   -0.000033
      4          6           0       -0.523354    0.919112   -0.000009
      5          6           0        0.183494   -0.306843    0.000010
      6          6           0       -0.561013   -1.504534    0.000004
      7          6           0        1.669096   -0.312008    0.000036
      8          8           0        2.220363   -1.523462    0.000031
      9          7           0        0.268659    2.173362   -0.000002
     10          8           0        2.357605    0.732918    0.000018
     11          1           0       -2.526542   -2.402744   -0.000024
     12          1           0       -3.729449   -0.209559   -0.000057
     13          1           0       -2.441145    1.928556   -0.000046
     14          1           0       -0.029888   -2.459064    0.000018
     15          1           0        3.199345   -1.425401    0.000030
     16          1           0        0.084350    2.750023    0.835189
     17          1           0        1.319279    1.828072    0.000026
     18          1           0        0.084390    2.750008   -0.835212
 ---------------------------------------------------------------------

 SCF Done:  E(RPBE-PBE) =  -476.027395667     A.U. after    1 cycles

 The electronic state is 1-A.
 Alpha  occ. eigenvalues --  -19.00247 -18.95973 -14.28764 -10.21589 -10.14445
 Alpha  occ. eigenvalues --  -10.10755 -10.09122 -10.08505 -10.08380 -10.07578
 Alpha  occ. eigenvalues --   -1.19750  -1.11702  -1.08202  -0.95610  -0.87468
 Alpha  occ. eigenvalues --   -0.85133  -0.77655  -0.74475  -0.71773  -0.69537
 Alpha  occ. eigenvalues --   -0.67875  -0.65454  -0.62813  -0.61047  -0.57877
 Alpha  occ. eigenvalues --   -0.57442  -0.56139  -0.55559  -0.51874  -0.50207
 Alpha  occ. eigenvalues --   -0.49251  -0.48006  -0.45609  -0.42397  -0.40824
 Alpha  occ. eigenvalues --   -0.40560
 Alpha virt. eigenvalues --   -0.25958  -0.21960  -0.18446  -0.16415  -0.14218
 Alpha virt. eigenvalues --   -0.12948  -0.11917  -0.10854  -0.09507  -0.08613
 Alpha virt. eigenvalues --   -0.07963  -0.07814  -0.06919  -0.05791  -0.05172

 Mulliken charges:
               1
     1  C    0.035500
     2  C   -0.427268
     3  C    0.527029
     4  C   -1.210472
     5  C    1.325380
     6  C   -0.922501
     7  C    0.689536
     8  O   -0.376294
     9  N   -0.654648
    10  O   -0.418501
    11  H    0.192669
    12  H    0.193606
    13  H    0.180331
    14  H    0.204818
    15  H    0.410918
    16  H    0.407071
    17  H    0.435755
    18  H    0.407071
 Sum of Mulliken charges =   1.00000

 Dipole moment (field-independent basis, Debye):
    X=             -0.9323    Y=              3.9598    Z=             -0.0000  Tot=              4.0680
 Quadrupole moment (field-independent basis, Debye-Ang):
   XX=            -35.3281   YY=            -29.2952   ZZ=            -56.6631
   XY=             -3.4468   XZ=              0.0003   YZ=             -0.0001

  Exact polarizability: 124.304  -0.098 105.897   0.001  -0.000  49.479
 Approx polarizability: 244.616   2.562 219.634   0.002  -0.001  82.013

                      1                      2                      3
                      A                      A                      A
 Frequencies --     90.8137               126.5375               223.9174
 Red. masses --      6.0865                 3.7407                 3.2716
 Frc consts  --      0.0296                 0.0353                 0.0966
 IR Inten    --      5.7917                 1.2421                19.6744

                      4                      5                      6
                      A                      A                      A
 Frequencies --    270.1690               358.7988               375.2090
 Red. masses --      5.2320                 1.1947                 4.0341
 Frc consts  --      0.2250                 0.0906                 0.3346
 IR Inten    --      8.3183                 0.0004                76.8969

                      7                      8                      9
                      A                      A                      A
 Frequencies --    407.4819               427.1937               473.8734
 Red. masses --      3.0007                 7.8540                 3.1114
 Frc consts  --      0.2936                 0.8445                 0.4117
 IR Inten    --      9.8502                 4.0937                 5.4067

                     10                     11                     12
                      A                      A                      A
 Frequencies --    488.5072               547.4766               612.8716
 Red. masses --      4.6068                 6.2890                 1.3230
 Frc consts  --      0.6477                 1.1106                 0.2928
 IR Inten    --      3.1796                 2.8320                62.4595

                     13                     14                     15
                      A                      A                      A
 Frequencies --    643.4680               682.8560               731.4926
 Red. masses --      5.4128                 2.8971                 1.6123
 Frc consts  --      1.3205                 0.7959                 0.5083
 IR Inten    --     87.3147                43.8903                86.5554

                     16                     17                     18
                      A                      A                      A
 Frequencies --    734.0719               778.2569               807.7241
 Red. masses --      4.0715                 2.5433                 5.3830
 Frc consts  --      1.2926                 0.9076                 2.0692
 IR Inten    --     45.5366                 2.2081                12.2291

                     19                     20                     21
                      A                      A                      A
 Frequencies --    863.0954               950.8687               988.1015
 Red. masses --      1.3638                 1.3685                 1.3448
 Frc consts  --      0.5986                 0.7290                 0.7736
 IR Inten    --      0.0917                 0.5423                 0.0006

                     22                     23                     24
                      A                      A                      A
 Frequencies --   1036.1018              1051.5278              1094.5902
 Red. masses --      2.3414                 2.5355                 1.3048
 Frc consts  --      1.4809                 1.6518                 0.9211
 IR Inten    --      8.2971                15.0310                 7.1793

                     25                     26                     27
                      A                      A                      A
 Frequencies --   1094.6505              1146.3076              1164.3987
 Red. masses --      1.9280                 1.6318                 1.9178
 Frc consts  --      1.3612                 1.2633                 1.5320
 IR Inten    --     91.4704                20.9355               153.6743

                     28                     29                     30
                      A                      A                      A
 Frequencies --   1168.5532              1181.1772              1278.3708
 Red. masses --      1.1827                 1.8222                 1.4456
 Frc consts  --      0.9515                 1.4979                 1.3919
 IR Inten    --     20.4441                34.5422                 9.8937

                     31                     32                     33
                      A                      A                      A
 Frequencies --   1369.1445              1387.7584              1425.2821
 Red. masses --      3.2147                 2.5824                 2.2165
 Frc consts  --      3.5505                 2.9302                 2.6529
 IR Inten    --    125.7465               273.6827               220.4442

                     34                     35                     36
                      A                      A                      A
 Frequencies --   1446.0639              1486.2052              1561.0830
 Red. masses --      2.5646                 2.5732                 1.5285
 Frc consts  --      3.1597                 3.3487                 2.1946
 IR Inten    --      4.0064                93.9513                16.0695

                     37                     38                     39
                      A                      A                      A
 Frequencies --   1588.5896              1613.5200              1621.5909
 Red. masses --      2.9679                 1.0424                 4.4279
 Frc consts  --      4.4129                 1.5989                 6.8600
 IR Inten    --     12.6057                34.9935                71.1936

                     40                     41                     42
                      A                      A                      A
 Frequencies --   1671.8599              2315.4611              3129.8572
 Red. masses --      3.4658                 1.1134                 1.0913
 Frc consts  --      5.7077                 3.5172                 6.2984
 IR Inten    --    169.2742               730.4351                 0.5934

                     43                     44                     45
                      A                      A                      A
 Frequencies --   3149.3409              3159.2789              3167.6390
 Red. masses --      1.0898                 1.0940                 1.0966
 Frc consts  --      6.3684                 6.4333                 6.4831
 IR Inten    --      0.1390                 1.5068                 2.6332

                     46                     47                     48
                      A                      A                      A
 Frequencies --   3363.3159              3431.6404              3618.3797
 Red. masses --      1.0510                 1.0944                 1.0648
 Frc consts  --      7.0044                 7.5934                 8.2141
 IR Inten    --     80.2860                89.7273               192.9494

 - Thermochemistry -
 -------------------
 Temperature   298.150 Kelvin.  Pressure   1.00000 Atm.
 Atom     1 has atomic number  6 and mass  12.00000

 Molecular mass:   138.05550 amu.
 Principal axes and moments of inertia in atomic units:
                           1         2         3
     Eigenvalues --   810.489101510.786742311.23374
           X            1.00000   0.00224  -0.00001
           Y           -0.00224   1.00000   0.00000
           Z            0.00001  -0.00000   1.00000
 This molecule is an asymmetric top.
 Rotational symmetry number  1.
 Warning -- assumption of classical behavior for rotation
           may cause significant error
 Rotational temperatures (Kelvin)      0.10687     0.05733     0.03748
 Rotational constants (GHZ):           2.22673     1.19457     0.78086
 Zero-point vibrational energy     372663.5 (Joules/Mol)
                                   89.06871 (Kcal/Mol)
 Warning -- explicit consideration of  12 degrees of freedom as
           vibrations may cause significant error
 Vibrational temperatures:    130.66   182.06   322.17   388.71   516.23
          (Kelvin)            539.84   586.27   614.64   681.80   702.85
                              787.70   881.78   925.81   982.48  1052.45
                             1056.16  1119.74  1162.13  1241.80  1368.09
                             1421.66  1490.72  1512.91  1574.87  1574.96
                             1649.28  1675.31  1681.29  1699.45  1839.29
                             1969.89  1996.67  2050.66  2080.56  2138.32
                             2246.05  2285.62  2321.49  2333.10  2405.43
                             3331.43  4503.16  4531.19  4545.49  4557.52
                             4839.06  4937.36  5206.03

 Zero-point correction=                           0.141940 (Hartree/Particle)
 Thermal correction to Energy=                    0.150303
 Thermal correction to Enthalpy=                  0.151247
 Thermal correction to Gibbs Free Energy=         0.108806
 Sum of electronic and zero-point Energies=           -475.885456
 Sum of electronic and thermal Energies=              -475.877093
 Sum of electronic and thermal Enthalpies=            -475.876149
 Sum of electronic and thermal Free Energies=         -475.918589

                     E (Thermal)             CV                S
                      KCal/Mol        Cal/Mol-Kelvin    Cal/Mol-Kelvin
 Total                   94.316             33.156             89.323
 Electronic               0.000              0.000              0.000
 Translational            0.889              2.981             40.679
 Rotational               0.889              2.981             29.427
 Vibrational             92.539             27.195             19.217
 Vibration     1          0.602              1.956              3.642
 Vibration     2          0.611              1.927              2.998
 Vibration     3          0.649              1.805              1.927
 Vibration     4          0.674              1.728              1.595
 Vibration     5          0.734              1.557              1.127
 Vibration     6          0.746              1.523              1.058
 Vibration     7          0.772              1.454              0.936
 Vibration     8          0.789              1.411              0.868
 Vibration     9          0.831              1.308              0.727
 Vibration    10          0.844              1.276              0.687
 Vibration    11          0.903              1.145              0.549
 Vibration    12          0.972              1.005              0.428

 Optimization completed.
    -- Stationary point found.
 Normal termination of Gaussian 09 at Tue Dec 17 20:59:16 2024.
