 Gaussian 09, Revision E.01,
 Gaussian 09:  ES64L-G09RevE.01 30-Nov-2015

 -------------------------------------------------------
 # opt freq B2PLYP/6-31+g(d,p) EmpiricalDispersion=GD3BJ
 -------------------------------------------------------

 ----------
 [No Title]
 ----------
 Symbolic Z-matrix:
 Charge =  1 Multiplicity = 1

 SCF Done:  E(RB2PLYP) =  -475.645125768     A.U. after   16 cycles
 E2(B2PLYP) =    -0.4839745026D+00 E(B2PLYP) =    -0.47612910027049D+03
 SCF Done:  E(RB2PLYP) =  -475.644516607     A.U. after   13 cycles
 E2(B2PLYP) =    -0.4844166931D+00 E(B2PLYP) =    -0.47612893330026D+03
 SCF Done:  E(RB2PLYP) =  -475.644914395     A.U. after   12 cycles
 E2(B2PLYP) =    -0.4844658122D+00 E(B2PLYP) =    -0.47612938020772D+03
 SCF Done:  E(RB2PLYP) =  -475.645073033     A.U. after   12 cycles
 E2(B2PLYP) =    -0.4843324707D+00 E(B2PLYP) =    -0.47612940550326D+03
 SCF Done:  E(RB2PLYP) =  -475.645171004     A.U. after   11 cycles
 E2(B2PLYP) =    -0.4842327907D+00 E(B2PLYP) =    -0.47612940379424D+03
 SCF Done:  E(RB2PLYP) =  -475.645198608     A.U. after   11 cycles
 E2(B2PLYP) =    -0.4842112391D+00 E(B2PLYP) =    -0.47612940984696D+03
 SCF Done:  E(RB2PLYP) =  -475.645170735     A.U. after   10 cycles
 E2(B2PLYP) =    -0.4842408621D+00 E(B2PLYP) =    -0.47612941159714D+03
 SCF Done:  E(RB2PLYP) =  -475.645161854     A.U. after    9 cycles
 E2(B2PLYP) =    -0.4842501668D+00 E(B2PLYP) =    -0.47612941202084D+03
 Optimization completed.
    -- Stationary point found.
 Normal termination of Gaussian 09 at Thu Dec 19 11:50:56 2024.

 ----------------------------------------------------------------------
 #N Geom=AllCheck Guess=TCheck SCRF=Check GenChk RB2PLYP(FC)/6-31+G(d,p
 ) Freq
 ----------------------------------------------------------------------

 Structure from the checkpoint file:  "B2PLYPD3BJAnthranilicyang.chk"
 ----------
 [No Title]
 ----------
 Charge =  1 Multiplicity = 1

                         Standard orientation:
 ---------------------------------------------------------------------
 Center     Atomic      Atomic             Coordinates (Angstroms)
 Number     Number       Type             X           Y           Z
 ---------------------------------------------------------------------
      1          6           0       -1.930923   -1.479486   -0.000001
      2          6           0       -2.619506   -0.264665   -0.000005
      3          6           0       -1.915180    0.943642   -0.000009
      4          6           0       -0.529303    0.909271   -0.000002
      5          6           0        0.189773   -0.298976   -0.000022
      6          6           0       -0.536545   -1.498560   -0.000005
      7          6           0        1.674255   -0.297121   -0.000044
      8          8           0        2.217432   -1.505728    0.000072
      9          7           0        0.226374    2.182719    0.000036
     10          8           0        2.352167    0.738537   -0.000070
     11          1           0       -2.479334   -2.412509    0.000003
     12          1           0       -3.701884   -0.250074    0.000001
     13          1           0       -2.446504    1.888895    0.000001
     14          1           0        0.000391   -2.437302   -0.000012
     15          1           0        3.187783   -1.419525    0.000103
     16          1           0        0.023265    2.747630    0.828378
     17          1           0        1.255822    1.909257    0.000278
     18          1           0        0.023614    2.747479   -0.828496
 ---------------------------------------------------------------------

 SCF Done:  E(RB2PLYP) =  -475.645161854     A.U. after    2 cycles
 E2(B2PLYP) =    -0.4842501676D+00 E(B2PLYP) =    -0.47612941202165D+03
 E2(B2PLYP) =    -0.4842501676D+00 E(B2PLYP) =    -0.47612941202165D+03

 The electronic state is 1-A.
 Alpha  occ. eigenvalues --  -19.96648 -19.92040 -15.14909 -10.95925 -10.87520
 Alpha  occ. eigenvalues --  -10.83125 -10.81639 -10.81036 -10.80908 -10.79897
 Alpha  occ. eigenvalues --   -1.43557  -1.34384  -1.30776  -1.16089  -1.06301
 Alpha  occ. eigenvalues --   -1.03755  -0.93725  -0.90133  -0.86804  -0.83599
 Alpha  occ. eigenvalues --   -0.82150  -0.78995  -0.76472  -0.75118  -0.70318
 Alpha  occ. eigenvalues --   -0.70116  -0.68971  -0.68148  -0.64355  -0.60831
 Alpha  occ. eigenvalues --   -0.60267  -0.59236  -0.56294  -0.53594  -0.47152
 Alpha  occ. eigenvalues --   -0.46945
 Alpha virt. eigenvalues --   -0.17409  -0.13528  -0.13246  -0.08392  -0.08023
 Alpha virt. eigenvalues --   -0.06678  -0.06135  -0.05403  -0.05231  -0.04486
 Alpha virt. eigenvalues --   -0.02877  -0.02784  -0.01775  -0.01342  -0.00210

 Mulliken charges:
               1
     1  C   -0.048645
     2  C   -0.379955
     3  C    0.598787
     4  C   -1.169016
     5  C    0.996165
     6  C   -0.657510
     7  C    0.822820
     8  O   -0.480193
     9  N   -0.642519
    10  O   -0.539441
    11  H    0.196858
    12  H    0.198008
    13  H    0.183655
    14  H    0.213356
    15  H    0.426588
    16  H    0.407885
    17  H    0.465261
    18  H    0.407896
 Sum of Mulliken charges =   1.00000

 Dipole moment (field-independent basis, Debye):
    X=             -1.4181    Y=              4.3723    Z=              0.0002  Tot=              4.5965
 Quadrupole moment (field-independent basis, Debye-Ang):
   XX=            -37.0529   YY=            -28.7354   ZZ=            -56.9662
   XY=             -3.7151   XZ=              0.0005   YZ=              0.0005

  Exact polarizability: 116.025   0.783 101.448  -0.000  -0.000  48.752
 Approx polarizability: 133.865   1.483 126.951  -0.001  -0.001  62.352

                      1                      2                      3
                      A                      A                      A
 Frequencies --     78.3244               124.4592               222.6822
 Red. masses --      5.9030                 3.6957                 3.1595
 Frc consts  --      0.0213                 0.0337                 0.0923
 IR Inten    --      6.3048                 1.7146                19.2928

                      4                      5                      6
                      A                      A                      A
 Frequencies --    272.3533               310.3377               370.8206
 Red. masses --      5.2649                 1.2123                 3.8658
 Frc consts  --      0.2301                 0.0688                 0.3132
 IR Inten    --      9.3087                 0.8468                61.3229

                      7                      8                      9
                      A                      A                      A
 Frequencies --    407.8208               428.9198               468.4765
 Red. masses --      3.1662                 8.1256                 3.4058
 Frc consts  --      0.3103                 0.8808                 0.4404
 IR Inten    --      8.9112                 2.8197                 6.5930

                     10                     11                     12
                      A                      A                      A
 Frequencies --    501.1368               565.7047               593.8990
 Red. masses --      4.6198                 6.2820                 2.5705
 Frc consts  --      0.6836                 1.1845                 0.5342
 IR Inten    --      4.7039                 2.5627                20.0527

                     13                     14                     15
                      A                      A                      A
 Frequencies --    636.0338               659.5245               744.2946
 Red. masses --      1.5691                 5.3919                 2.5180
 Frc consts  --      0.3740                 1.3818                 0.8218
 IR Inten    --     72.2383                77.9976               109.3301

                     16                     17                     18
                      A                      A                      A
 Frequencies --    751.6380               788.8038               834.1960
 Red. masses --      4.1513                 1.7129                 5.3352
 Frc consts  --      1.3818                 0.6279                 2.1874
 IR Inten    --     41.8466                11.5086                11.5383

                     19                     20                     21
                      A                      A                      A
 Frequencies --    878.9355               972.4147               994.4251
 Red. masses --      1.2467                 1.3353                 1.2547
 Frc consts  --      0.5675                 0.7439                 0.7310
 IR Inten    --      0.0360                 0.3891                 0.0391

                     22                     23                     24
                      A                      A                      A
 Frequencies --   1064.8041              1083.6585              1121.5431
 Red. masses --      2.3463                 2.2574                 1.2930
 Frc consts  --      1.5674                 1.5619                 0.9583
 IR Inten    --      8.8156                12.5703                 8.2205

                     25                     26                     27
                      A                      A                      A
 Frequencies --   1128.9228              1185.3441              1207.4077
 Red. masses --      2.2790                 1.6597                 2.2006
 Frc consts  --      1.7113                 1.3739                 1.8901
 IR Inten    --    102.1889                13.3921                90.9461

                     28                     29                     30
                      A                      A                      A
 Frequencies --   1211.1436              1223.0196              1333.0388
 Red. masses --      1.1370                 1.8411                 1.5294
 Frc consts  --      0.9827                 1.6225                 1.6012
 IR Inten    --     32.3377                67.8222                 2.4709

                     31                     32                     33
                      A                      A                      A
 Frequencies --   1400.7054              1440.4611              1497.8427
 Red. masses --      5.9880                 2.9033                 1.9809
 Frc consts  --      6.9219                 3.5494                 2.6185
 IR Inten    --     22.9951               234.0902                76.2516

                     34                     35                     36
                      A                      A                      A
 Frequencies --   1511.5632              1544.8328              1625.5597
 Red. masses --      1.5415                 2.5108                 2.1643
 Frc consts  --      2.0751                 3.5305                 3.3696
 IR Inten    --    229.6508                72.9363                16.2093

                     37                     38                     39
                      A                      A                      A
 Frequencies --   1647.7466              1683.2137              1692.1436
 Red. masses --      2.3012                 2.9955                 1.0448
 Frc consts  --      3.6812                 5.0004                 1.7626
 IR Inten    --     32.4273                45.9467                38.9793

                     40                     41                     42
                      A                      A                      A
 Frequencies --   1735.7995              2775.5023              3228.1238
 Red. masses --      4.1972                 1.0862                 1.0922
 Frc consts  --      7.4509                 4.9298                 6.7056
 IR Inten    --    224.9975               624.1290                 0.5802

                     43                     44                     45
                      A                      A                      A
 Frequencies --   3250.8784              3261.5872              3271.4211
 Red. masses --      1.0907                 1.0952                 1.0961
 Frc consts  --      6.7911                 6.8646                 6.9115
 IR Inten    --      0.1228                 0.9274                 3.1945

                     46                     47                     48
                      A                      A                      A
 Frequencies --   3466.9083              3535.7991              3748.1908
 Red. masses --      1.0532                 1.0942                 1.0651
 Frc consts  --      7.4581                 8.0595                 8.8167
 IR Inten    --    105.0972               103.9034               218.6467

 - Thermochemistry -
 -------------------
 Temperature   298.150 Kelvin.  Pressure   1.00000 Atm.
 Atom     1 has atomic number  6 and mass  12.00000

 Molecular mass:   138.05550 amu.
 Principal axes and moments of inertia in atomic units:
                           1         2         3
     Eigenvalues --   807.980831496.195982294.29670
           X            1.00000   0.00100   0.00000
           Y           -0.00100   1.00000   0.00000
           Z           -0.00000  -0.00000   1.00000
 This molecule is an asymmetric top.
 Rotational symmetry number  1.
 Warning -- assumption of classical behavior for rotation
           may cause significant error
 Rotational temperatures (Kelvin)      0.10720     0.05789     0.03775
 Rotational constants (GHZ):           2.23364     1.20622     0.78662
 Zero-point vibrational energy     385690.2 (Joules/Mol)
                                   92.18216 (Kcal/Mol)
 Warning -- explicit consideration of  12 degrees of freedom as
           vibrations may cause significant error
 Vibrational temperatures:    112.69   179.07   320.39   391.86   446.51
          (Kelvin)            533.53   586.76   617.12   674.03   721.02
                              813.92   854.49   915.11   948.91  1070.87
                             1081.44  1134.91  1200.22  1264.59  1399.09
                             1430.75  1532.01  1559.14  1613.65  1624.27
                             1705.44  1737.19  1742.56  1759.65  1917.94
                             2015.30  2072.50  2155.06  2174.80  2222.67
                             2338.81  2370.74  2421.77  2434.61  2497.43
                             3993.32  4644.54  4677.28  4692.69  4706.84
                             4988.10  5087.22  5392.80

 Zero-point correction=                           0.146902 (Hartree/Particle)
 Thermal correction to Energy=                    0.155291
 Thermal correction to Enthalpy=                  0.156235
 Thermal correction to Gibbs Free Energy=         0.113612
 Sum of electronic and zero-point Energies=           -475.982510
 Sum of electronic and thermal Energies=              -475.974121
 Sum of electronic and thermal Enthalpies=            -475.973177
 Sum of electronic and thermal Free Energies=         -476.015800

                     E (Thermal)             CV                S
                      KCal/Mol        Cal/Mol-Kelvin    Cal/Mol-Kelvin
 Total                   97.446             32.752             89.708
 Electronic               0.000              0.000              0.000
 Translational            0.889              2.981             40.679
 Rotational               0.889              2.981             29.407
 Vibrational             95.669             26.790             19.622
 Vibration     1          0.600              1.964              3.932
 Vibration     2          0.610              1.929              3.030
 Vibration     3          0.648              1.807              1.937
 Vibration     4          0.675              1.724              1.581
 Vibration     5          0.699              1.654              1.361
 Vibration     6          0.743              1.532              1.076
 Vibration     7          0.772              1.453              0.934
 Vibration     8          0.790              1.407              0.862
 Vibration     9          0.826              1.320              0.742
 Vibration    10          0.857              1.247              0.655
 Vibration    11          0.922              1.105              0.513
 Vibration    12          0.952              1.045              0.460

 Optimization completed.
    -- Stationary point found.
 Normal termination of Gaussian 09 at Thu Dec 19 12:01:21 2024.
