 Gaussian 09, Revision E.01,
 Gaussian 09:  ES64L-G09RevE.01 30-Nov-2015

 -------------------------------------------------------
 # opt freq B2PLYP/6-31+g(d,p) EmpiricalDispersion=GD3BJ
 -------------------------------------------------------

 ----------
 [No Title]
 ----------
 Symbolic Z-matrix:
 Charge =  0 Multiplicity = 1

 SCF Done:  E(RB2PLYP) =  -475.290127283     A.U. after   15 cycles
 E2(B2PLYP) =    -0.4849586244D+00 E(B2PLYP) =    -0.47577508590785D+03
 SCF Done:  E(RB2PLYP) =  -475.289787573     A.U. after   12 cycles
 E2(B2PLYP) =    -0.4854337276D+00 E(B2PLYP) =    -0.47577522130079D+03
 SCF Done:  E(RB2PLYP) =  -475.289696315     A.U. after   11 cycles
 E2(B2PLYP) =    -0.4855263786D+00 E(B2PLYP) =    -0.47577522269372D+03
 SCF Done:  E(RB2PLYP) =  -475.289784801     A.U. after   11 cycles
 E2(B2PLYP) =    -0.4854520609D+00 E(B2PLYP) =    -0.47577523686193D+03
 SCF Done:  E(RB2PLYP) =  -475.289800095     A.U. after   10 cycles
 E2(B2PLYP) =    -0.4854362013D+00 E(B2PLYP) =    -0.47577523629678D+03
 SCF Done:  E(RB2PLYP) =  -475.289793230     A.U. after   10 cycles
 E2(B2PLYP) =    -0.4854444491D+00 E(B2PLYP) =    -0.47577523767893D+03
 Optimization completed.
    -- Stationary point found.
 Normal termination of Gaussian 09 at Thu Dec 19 11:14:56 2024.

 ----------------------------------------------------------------------
 #N Geom=AllCheck Guess=TCheck SCRF=Check GenChk RB2PLYP(FC)/6-31+G(d,p
 ) Freq
 ----------------------------------------------------------------------

 Structure from the checkpoint file:  "B2PLYPD3BJAnthranilic.chk"
 ----------
 [No Title]
 ----------
 Charge =  0 Multiplicity = 1

                         Standard orientation:
 ---------------------------------------------------------------------
 Center     Atomic      Atomic             Coordinates (Angstroms)
 Number     Number       Type             X           Y           Z
 ---------------------------------------------------------------------
      1          6           0       -1.857962   -1.520867    0.000004
      2          6           0       -2.587004   -0.319582    0.000005
      3          6           0       -1.939692    0.904338    0.000010
      4          6           0       -0.527171    0.986290    0.000012
      5          6           0        0.212213   -0.230979    0.000008
      6          6           0       -0.473868   -1.463457    0.000004
      7          6           0        1.676715   -0.202893   -0.000004
      8          8           0        2.251652   -1.435847   -0.000031
      9          7           0        0.078544    2.207222    0.000035
     10          8           0        2.380233    0.808163   -0.000025
     11          1           0       -2.368004   -2.475537    0.000001
     12          1           0       -3.670887   -0.343804    0.000004
     13          1           0       -2.513899    1.824725    0.000015
     14          1           0        0.110039   -2.373849    0.000000
     15          1           0        3.209666   -1.280907   -0.000048
     16          1           0        1.086436    2.259658    0.000008
     17          1           0       -0.477637    3.043528   -0.000016
 ---------------------------------------------------------------------

 SCF Done:  E(RB2PLYP) =  -475.289793230     A.U. after    1 cycles
 E2(B2PLYP) =    -0.4854444506D+00 E(B2PLYP) =    -0.47577523768040D+03
 E2(B2PLYP) =    -0.4854444505D+00 E(B2PLYP) =    -0.47577523768039D+03

 The electronic state is 1-A.
 Alpha  occ. eigenvalues --  -19.80094 -19.74366 -14.86777 -10.78089 -10.69915
 Alpha  occ. eigenvalues --  -10.64928 -10.64650 -10.64461 -10.63506 -10.62806
 Alpha  occ. eigenvalues --   -1.26056  -1.16163  -1.06426  -0.97379  -0.89088
 Alpha  occ. eigenvalues --   -0.85139  -0.76390  -0.71896  -0.68629  -0.61934
 Alpha  occ. eigenvalues --   -0.60439  -0.59312  -0.57996  -0.53624  -0.53077
 Alpha  occ. eigenvalues --   -0.51645  -0.50568  -0.48166  -0.45644  -0.44480
 Alpha  occ. eigenvalues --   -0.42394  -0.39548  -0.37734  -0.35848  -0.30552
 Alpha  occ. eigenvalues --   -0.25067
 Alpha virt. eigenvalues --   -0.00186   0.02847   0.03794   0.04549   0.04832
 Alpha virt. eigenvalues --    0.05900   0.07076   0.07823   0.08310   0.09565
 Alpha virt. eigenvalues --    0.09749   0.10359   0.10889   0.12294   0.12838

 Mulliken charges:
               1
     1  C   -0.118889
     2  C   -0.426508
     3  C    0.472818
     4  C   -0.985769
     5  C    0.894084
     6  C   -0.586164
     7  C    0.847760
     8  O   -0.531790
     9  N   -0.666421
    10  O   -0.577597
    11  H    0.145097
    12  H    0.147653
    13  H    0.129646
    14  H    0.173449
    15  H    0.395690
    16  H    0.372475
    17  H    0.314465
 Sum of Mulliken charges =   0.00000

 Dipole moment (field-independent basis, Debye):
    X=             -1.3515    Y=              0.3663    Z=             -0.0001  Tot=              1.4002
 Quadrupole moment (field-independent basis, Debye-Ang):
   XX=            -52.3654   YY=            -50.9509   ZZ=            -62.8485
   XY=             -5.4773   XZ=             -0.0000   YZ=             -0.0003

  Exact polarizability: 127.298   4.280 115.276  -0.000   0.000  54.231
 Approx polarizability: 140.849   8.473 140.611  -0.000   0.000  66.931

 ******    1 imaginary frequencies (negative Signs) ******

                      1                      2                      3
                      A                      A                      A
 Frequencies --   -301.5847                74.8828               143.9270
 Red. masses --      1.4162                 7.1537                 3.6178
 Frc consts  --      0.0759                 0.0236                 0.0442
 IR Inten    --    182.4583                 2.9061                 6.6236

                      4                      5                      6
                      A                      A                      A
 Frequencies --    217.4222               257.3809               372.1346
 Red. masses --      4.3171                 5.8331                 5.1882
 Frc consts  --      0.1202                 0.2277                 0.4233
 IR Inten    --      7.1323                 0.8775                 7.4845

                      7                      8                      9
                      A                      A                      A
 Frequencies --    399.3796               418.2368               511.9512
 Red. masses --      3.2706                 5.8710                 4.2085
 Frc consts  --      0.3074                 0.6051                 0.6499
 IR Inten    --      6.3702                 0.9462                 4.9765

                     10                     11                     12
                      A                      A                      A
 Frequencies --    512.9146               562.0331               571.4144
 Red. masses --      3.3188                 1.2776                 6.8491
 Frc consts  --      0.5144                 0.2378                 1.3176
 IR Inten    --     21.8560                71.5741                 1.4196

                     13                     14                     15
                      A                      A                      A
 Frequencies --    583.9295               598.5292               648.6859
 Red. masses --      1.9218                 1.4724                 5.3097
 Frc consts  --      0.3861                 0.3108                 1.3164
 IR Inten    --      1.7532                37.6936                50.1367

                     16                     17                     18
                      A                      A                      A
 Frequencies --    737.7941               753.1028               771.7292
 Red. masses --      2.0476                 4.3203                 2.3438
 Frc consts  --      0.6567                 1.4437                 0.8224
 IR Inten    --     99.8538                12.2083                 2.8488

                     19                     20                     21
                      A                      A                      A
 Frequencies --    825.4319               869.0263               939.1906
 Red. masses --      1.2796                 5.3537                 1.2550
 Frc consts  --      0.5137                 2.3822                 0.6522
 IR Inten    --      0.1102                 6.8430                 0.4221

                     22                     23                     24
                      A                      A                      A
 Frequencies --    951.3595              1046.0640              1080.9960
 Red. masses --      1.2468                 2.1138                 2.1363
 Frc consts  --      0.6649                 1.3628                 1.4708
 IR Inten    --      0.0069                 3.2697                32.1355

                     25                     26                     27
                      A                      A                      A
 Frequencies --   1098.1578              1184.6523              1196.4632
 Red. masses --      3.2562                 1.3489                 1.2155
 Frc consts  --      2.3136                 1.1154                 1.0252
 IR Inten    --    134.5729                69.2795               124.5294

                     28                     29                     30
                      A                      A                      A
 Frequencies --   1213.4988              1320.6451              1356.0585
 Red. masses --      1.5060                 1.9263                 2.0083
 Frc consts  --      1.3066                 1.9795                 2.1759
 IR Inten    --    158.1142                 2.5353                58.7727

                     31                     32                     33
                      A                      A                      A
 Frequencies --   1384.8879              1420.9877              1500.9124
 Red. masses --      3.0365                 5.9715                 2.5644
 Frc consts  --      3.4313                 7.1042                 3.4037
 IR Inten    --    125.5630                21.9269                11.5778

                     34                     35                     36
                      A                      A                      A
 Frequencies --   1535.7048              1611.8584              1643.2628
 Red. masses --      2.3182                 2.9683                 2.2281
 Frc consts  --      3.2212                 4.5437                 3.5449
 IR Inten    --     45.1028                84.7629               171.1175

                     37                     38                     39
                      A                      A                      A
 Frequencies --   1678.5853              1745.4298              3206.9515
 Red. masses --      3.4394                 6.5647                 1.0877
 Frc consts  --      5.7098                11.7834                 6.5907
 IR Inten    --    155.1046               394.0905                 8.4912

                     40                     41                     42
                      A                      A                      A
 Frequencies --   3225.9086              3242.6774              3261.4824
 Red. masses --      1.0919                 1.0925                 1.0948
 Frc consts  --      6.6950                 6.7681                 6.8614
 IR Inten    --     15.0516                 9.4153                 4.8433

                     43                     44                     45
                      A                      A                      A
 Frequencies --   3599.3019              3770.0819              3789.6004
 Red. masses --      1.0492                 1.1020                 1.0647
 Frc consts  --      8.0082                 9.2284                 9.0085
 IR Inten    --    106.1238                84.5059               100.6432

 - Thermochemistry -
 -------------------
 Temperature   298.150 Kelvin.  Pressure   1.00000 Atm.
 Atom     1 has atomic number  6 and mass  12.00000

 Molecular mass:   137.04768 amu.
 Principal axes and moments of inertia in atomic units:
                           1         2         3
     Eigenvalues --   787.083681486.480022273.56370
           X            0.99999  -0.00437   0.00001
           Y            0.00437   0.99999  -0.00001
           Z           -0.00001   0.00001   1.00000
 This molecule is an asymmetric top.
 Rotational symmetry number  1.
 Warning -- assumption of classical behavior for rotation
           may cause significant error
 Rotational temperatures (Kelvin)      0.11004     0.05827     0.03810
 Rotational constants (GHZ):           2.29295     1.21410     0.79379
    1 imaginary frequencies ignored.
 Zero-point vibrational energy     345927.9 (Joules/Mol)
                                   82.67875 (Kcal/Mol)
 Warning -- explicit consideration of  13 degrees of freedom as
           vibrations may cause significant error
 Vibrational temperatures:    107.74   207.08   312.82   370.31   535.42
          (Kelvin)            574.62   601.75   736.58   737.97   808.64
                              822.14   840.14   861.15   933.31  1061.52
                             1083.55  1110.34  1187.61  1250.33  1351.28
                             1368.79  1505.05  1555.31  1580.00  1704.45
                             1721.44  1745.95  1900.11  1951.06  1992.54
                             2044.48  2159.48  2209.53  2319.10  2364.29
                             2415.11  2511.28  4614.08  4641.36  4665.48
                             4692.54  5178.59  5424.30  5452.38

 Zero-point correction=                           0.131757 (Hartree/Particle)
 Thermal correction to Energy=                    0.139918
 Thermal correction to Enthalpy=                  0.140862
 Thermal correction to Gibbs Free Energy=         0.098693
 Sum of electronic and zero-point Energies=           -475.643481
 Sum of electronic and thermal Energies=              -475.635319
 Sum of electronic and thermal Enthalpies=            -475.634375
 Sum of electronic and thermal Free Energies=         -475.676545

                     E (Thermal)             CV                S
                      KCal/Mol        Cal/Mol-Kelvin    Cal/Mol-Kelvin
 Total                   87.800             32.044             88.753
 Electronic               0.000              0.000              0.000
 Translational            0.889              2.981             40.657
 Rotational               0.889              2.981             29.366
 Vibrational             86.023             26.082             18.730
 Vibration     1          0.599              1.966              4.021
 Vibration     2          0.616              1.909              2.751
 Vibration     3          0.646              1.815              1.980
 Vibration     4          0.667              1.750              1.679
 Vibration     5          0.744              1.529              1.071
 Vibration     6          0.765              1.471              0.965
 Vibration     7          0.781              1.431              0.898
 Vibration     8          0.867              1.224              0.629
 Vibration     9          0.868              1.221              0.627
 Vibration    10          0.918              1.113              0.520
 Vibration    11          0.928              1.093              0.502
 Vibration    12          0.941              1.066              0.478
 Vibration    13          0.957              1.035              0.452

 Optimization completed.
    -- Stationary point found.
 Normal termination of Gaussian 09 at Thu Dec 19 11:24:00 2024.
