 Gaussian 09, Revision E.01,
 Gaussian 09:  ES64L-G09RevE.01 30-Nov-2015

 -------------------------------------
 # opt freq b3lyp/6-31+g(d,p) em=gd3bj
 -------------------------------------

 ----------
 [No Title]
 ----------
 Symbolic Z-matrix:
 Charge =  1 Multiplicity = 1

 SCF Done:  E(RB3LYP) =  -476.610132133     A.U. after   15 cycles
 SCF Done:  E(RB3LYP) =  -476.610127400     A.U. after   11 cycles
 SCF Done:  E(RB3LYP) =  -476.610141474     A.U. after   11 cycles
 SCF Done:  E(RB3LYP) =  -476.610148978     A.U. after   10 cycles
 Optimization completed.
    -- Stationary point found.
 Normal termination of Gaussian 09 at Sat Jun 22 17:12:03 2024.

 ----------------------------------------------------------------------
 #N Geom=AllCheck Guess=TCheck SCRF=Check GenChk RB3LYP/6-31+G(d,p) Fre
 q
 ----------------------------------------------------------------------

 Structure from the checkpoint file:  "gd3b3lypAnthranilicyang.chk"
 ----------
 [No Title]
 ----------
 Charge =  1 Multiplicity = 1

                         Standard orientation:
 ---------------------------------------------------------------------
 Center     Atomic      Atomic             Coordinates (Angstroms)
 Number     Number       Type             X           Y           Z
 ---------------------------------------------------------------------
      1          6           0        1.937846   -1.474191    0.000069
      2          6           0        2.620795   -0.256790   -0.000022
      3          6           0        1.911748    0.949376   -0.000050
      4          6           0        0.527265    0.910737    0.000006
      5          6           0       -0.186572   -0.301542    0.000064
      6          6           0        0.543953   -1.498273    0.000098
      7          6           0       -1.670489   -0.301926   -0.000018
      8          8           0       -2.218610   -1.506123    0.000046
      9          7           0       -0.240150    2.178602    0.000053
     10          8           0       -2.346637    0.733288   -0.000243
     11          1           0        2.490973   -2.406768    0.000108
     12          1           0        3.705144   -0.237671   -0.000071
     13          1           0        2.441032    1.897794   -0.000114
     14          1           0        0.009539   -2.440489    0.000129
     15          1           0       -3.189784   -1.422024   -0.000059
     16          1           0       -0.043306    2.746917   -0.829427
     17          1           0       -1.274092    1.883827   -0.000159
     18          1           0       -0.043753    2.746538    0.829908
 ---------------------------------------------------------------------

 SCF Done:  E(RB3LYP) =  -476.610148978     A.U. after    1 cycles

 The electronic state is 1-A.
 Alpha  occ. eigenvalues --  -19.37605 -19.33148 -14.62816 -10.51210 -10.43466
 Alpha  occ. eigenvalues --  -10.39409 -10.37918 -10.37214 -10.37130 -10.36263
 Alpha  occ. eigenvalues --   -1.29268  -1.20757  -1.17507  -1.03881  -0.95045
 Alpha  occ. eigenvalues --   -0.92716  -0.84253  -0.81042  -0.78097  -0.75816
 Alpha  occ. eigenvalues --   -0.74042  -0.71346  -0.68568  -0.66821  -0.63143
 Alpha  occ. eigenvalues --   -0.62989  -0.61699  -0.61026  -0.57092  -0.54593
 Alpha  occ. eigenvalues --   -0.54240  -0.52940  -0.50130  -0.47028  -0.43703
 Alpha  occ. eigenvalues --   -0.43523
 Alpha virt. eigenvalues --   -0.23081  -0.19179  -0.17058  -0.12626  -0.12277
 Alpha virt. eigenvalues --   -0.11431  -0.10220  -0.09542  -0.08331  -0.07405
 Alpha virt. eigenvalues --   -0.06359  -0.06163  -0.05183  -0.04153  -0.04133

 Mulliken charges:
               1
     1  C    0.013800
     2  C   -0.368320
     3  C    0.538291
     4  C   -1.016557
     5  C    1.056280
     6  C   -0.816959
     7  C    0.785733
     8  O   -0.433366
     9  N   -0.664793
    10  O   -0.476644
    11  H    0.177237
    12  H    0.178216
    13  H    0.164365
    14  H    0.192438
    15  H    0.417570
    16  H    0.403480
    17  H    0.445722
    18  H    0.403506
 Sum of Mulliken charges =   1.00000

 Dipole moment (field-independent basis, Debye):
    X=              1.1922    Y=              4.2138    Z=              0.0006  Tot=              4.3792
 Quadrupole moment (field-independent basis, Debye-Ang):
   XX=            -36.5285   YY=            -29.1211   ZZ=            -56.5595
   XY=              3.5819   XZ=             -0.0011   YZ=              0.0011

  Exact polarizability: 117.880  -0.551 102.112  -0.000  -0.002  48.770
 Approx polarizability: 183.220  -2.116 169.934  -0.000  -0.006  72.976

                      1                      2                      3
                      A                      A                      A
 Frequencies --     88.8813               131.3223               230.0329
 Red. masses --      5.9969                 3.7069                 3.2050
 Frc consts  --      0.0279                 0.0377                 0.0999
 IR Inten    --      6.5916                 1.6493                19.2364

                      4                      5                      6
                      A                      A                      A
 Frequencies --    273.2442               332.6810               374.5910
 Red. masses --      5.2259                 1.1891                 3.9151
 Frc consts  --      0.2299                 0.0775                 0.3237
 IR Inten    --      9.3807                 0.3233                66.0242

                      7                      8                      9
                      A                      A                      A
 Frequencies --    424.2403               432.7761               489.0869
 Red. masses --      3.0237                 8.0137                 3.1912
 Frc consts  --      0.3206                 0.8843                 0.4497
 IR Inten    --      9.6373                 3.0128                 5.0568

                     10                     11                     12
                      A                      A                      A
 Frequencies --    502.2428               565.3232               623.5340
 Red. masses --      4.5980                 6.2540                 1.2820
 Frc consts  --      0.6833                 1.1776                 0.2937
 IR Inten    --      4.3094                 2.7692                72.4112

                     13                     14                     15
                      A                      A                      A
 Frequencies --    662.0619               701.9412               752.1307
 Red. masses --      5.3802                 3.0654                 4.0930
 Frc consts  --      1.3895                 0.8899                 1.3642
 IR Inten    --     81.4990                44.0680                44.2388

                     16                     17                     18
                      A                      A                      A
 Frequencies --    760.8580               807.9696               831.3037
 Red. masses --      1.6214                 2.5210                 5.3082
 Frc consts  --      0.5530                 0.9696                 2.1613
 IR Inten    --     91.0875                 1.0006                12.5126

                     19                     20                     21
                      A                      A                      A
 Frequencies --    898.7844               992.2280              1031.1403
 Red. masses --      1.3630                 1.3676                 1.3510
 Frc consts  --      0.6487                 0.7933                 0.8463
 IR Inten    --      0.0390                 0.5027                 0.0001

                     22                     23                     24
                      A                      A                      A
 Frequencies --   1061.9790              1080.6382              1122.1074
 Red. masses --      2.3146                 2.2567                 1.3150
 Frc consts  --      1.5380                 1.5527                 0.9755
 IR Inten    --      8.6431                16.2063                 8.4722

                     25                     26                     27
                      A                      A                      A
 Frequencies --   1126.1825              1180.2546              1199.8456
 Red. masses --      2.1639                 1.6595                 2.0195
 Frc consts  --      1.6170                 1.3620                 1.7130
 IR Inten    --     88.1659                 9.3529                58.5538

                     28                     29                     30
                      A                      A                      A
 Frequencies --   1202.6131              1212.9709              1323.6542
 Red. masses --      1.2441                 1.8010                 1.5434
 Frc consts  --      1.0601                 1.5613                 1.5932
 IR Inten    --     77.1338                80.7838                 3.1266

                     31                     32                     33
                      A                      A                      A
 Frequencies --   1376.4263              1431.7461              1486.0478
 Red. masses --      5.4668                 2.7033                 1.7069
 Frc consts  --      6.1023                 3.2650                 2.2208
 IR Inten    --     26.0422               264.8269               185.8523

                     34                     35                     36
                      A                      A                      A
 Frequencies --   1497.8572              1535.5607              1611.8578
 Red. masses --      1.9588                 2.4614                 1.6961
 Frc consts  --      2.5893                 3.4195                 2.5963
 IR Inten    --    117.1105                84.8052                19.5474

                     37                     38                     39
                      A                      A                      A
 Frequencies --   1636.0736              1673.1961              1675.0602
 Red. masses --      2.6573                 3.5490                 1.0443
 Frc consts  --      4.1908                 5.8539                 1.7264
 IR Inten    --     18.7937                52.8963                38.6275

                     40                     41                     42
                      A                      A                      A
 Frequencies --   1732.2999              2637.8840              3198.9237
 Red. masses --      4.4263                 1.0933                 1.0918
 Frc consts  --      7.8260                 4.4823                 6.5826
 IR Inten    --    242.6712               672.8344                 0.6490

                     43                     44                     45
                      A                      A                      A
 Frequencies --   3219.5687              3230.2738              3241.6281
 Red. masses --      1.0905                 1.0953                 1.0953
 Frc consts  --      6.6601                 6.7339                 6.7815
 IR Inten    --      0.1313                 0.6164                 3.1735

                     46                     47                     48
                      A                      A                      A
 Frequencies --   3437.3880              3501.1701              3732.5493
 Red. masses --      1.0521                 1.0944                 1.0651
 Frc consts  --      7.3242                 7.9045                 8.7432
 IR Inten    --     94.0787                97.6021               214.9199

 - Thermochemistry -
 -------------------
 Temperature   298.150 Kelvin.  Pressure   1.00000 Atm.
 Atom     1 has atomic number  6 and mass  12.00000

 Molecular mass:   138.05550 amu.
 Principal axes and moments of inertia in atomic units:
                           1         2         3
     Eigenvalues --   806.311891496.310562292.71295
           X            1.00000  -0.00143  -0.00002
           Y            0.00143   1.00000   0.00003
           Z            0.00002  -0.00003   1.00000
 This molecule is an asymmetric top.
 Rotational symmetry number  1.
 Warning -- assumption of classical behavior for rotation
           may cause significant error
 Rotational temperatures (Kelvin)      0.10742     0.05788     0.03778
 Rotational constants (GHZ):           2.23827     1.20613     0.78716
 Zero-point vibrational energy     384432.7 (Joules/Mol)
                                   91.88162 (Kcal/Mol)
 Warning -- explicit consideration of  11 degrees of freedom as
           vibrations may cause significant error
 Vibrational temperatures:    127.88   188.94   330.97   393.14   478.65
          (Kelvin)            538.95   610.39   622.67   703.69   722.61
                              813.37   897.13   952.56  1009.94  1082.15
                             1094.70  1162.49  1196.06  1293.15  1427.59
                             1483.58  1527.95  1554.80  1614.46  1620.32
                             1698.12  1726.31  1730.29  1745.19  1904.44
                             1980.37  2059.96  2138.09  2155.08  2209.33
                             2319.10  2353.94  2407.35  2410.04  2492.39
                             3795.32  4602.53  4632.24  4647.64  4663.97
                             4945.63  5037.40  5370.30

 Zero-point correction=                           0.146423 (Hartree/Particle)
 Thermal correction to Energy=                    0.154637
 Thermal correction to Enthalpy=                  0.155581
 Thermal correction to Gibbs Free Energy=         0.113368
 Sum of electronic and zero-point Energies=           -476.463726
 Sum of electronic and thermal Energies=              -476.455512
 Sum of electronic and thermal Enthalpies=            -476.454568
 Sum of electronic and thermal Free Energies=         -476.496781

                     E (Thermal)             CV                S
                      KCal/Mol        Cal/Mol-Kelvin    Cal/Mol-Kelvin
 Total                   97.036             32.298             88.845
 Electronic               0.000              0.000              0.000
 Translational            0.889              2.981             40.679
 Rotational               0.889              2.981             29.405
 Vibrational             95.259             26.336             18.761
 Vibration     1          0.602              1.957              3.685
 Vibration     2          0.612              1.922              2.927
 Vibration     3          0.652              1.795              1.879
 Vibration     4          0.676              1.723              1.576
 Vibration     5          0.715              1.610              1.247
 Vibration     6          0.746              1.524              1.061
 Vibration     7          0.786              1.418              0.878
 Vibration     8          0.794              1.399              0.850
 Vibration     9          0.845              1.274              0.686
 Vibration    10          0.858              1.245              0.653
 Vibration    11          0.921              1.106              0.513

 Normal termination of Gaussian 09 at Sat Jun 22 17:13:16 2024.
