 Gaussian 09, Revision E.01,
 Gaussian 09:  ES64L-G09RevE.01 30-Nov-2015

 -------------------------------------
 # opt freq b3lyp/6-31+g(d,p) em=gd3bj
 -------------------------------------

 ----------
 [No Title]
 ----------
 Symbolic Z-matrix:
 Charge =  0 Multiplicity = 1

 SCF Done:  E(RB3LYP) =  -476.256022014     A.U. after   15 cycles
 SCF Done:  E(RB3LYP) =  -476.256028054     A.U. after   11 cycles
 SCF Done:  E(RB3LYP) =  -476.256030010     A.U. after   11 cycles
 SCF Done:  E(RB3LYP) =  -476.256034711     A.U. after   10 cycles
 SCF Done:  E(RB3LYP) =  -476.256035712     A.U. after   10 cycles
 Optimization completed.
    -- Stationary point found.
 Normal termination of Gaussian 09 at Sat Jun 22 17:12:51 2024.

 ----------------------------------------------------------------------
 #N Geom=AllCheck Guess=TCheck SCRF=Check GenChk RB3LYP/6-31+G(d,p) Fre
 q
 ----------------------------------------------------------------------

 Structure from the checkpoint file:  "gd3b3lypAnthranilic.chk"
 ----------
 [No Title]
 ----------
 Charge =  0 Multiplicity = 1

                         Standard orientation:
 ---------------------------------------------------------------------
 Center     Atomic      Atomic             Coordinates (Angstroms)
 Number     Number       Type             X           Y           Z
 ---------------------------------------------------------------------
      1          6           0       -1.858506   -1.521404    0.000013
      2          6           0       -2.587518   -0.319380    0.000024
      3          6           0       -1.941802    0.904482    0.000020
      4          6           0       -0.528606    0.987198    0.000004
      5          6           0        0.212844   -0.231786   -0.000008
      6          6           0       -0.475129   -1.463418   -0.000002
      7          6           0        1.676494   -0.202654   -0.000027
      8          8           0        2.256453   -1.432562    0.000010
      9          7           0        0.079432    2.205264    0.000006
     10          8           0        2.378061    0.807350   -0.000035
     11          1           0       -2.369872   -2.477572    0.000015
     12          1           0       -3.673460   -0.344717    0.000035
     13          1           0       -2.517076    1.826289    0.000029
     14          1           0        0.109858   -2.375214   -0.000011
     15          1           0        3.215043   -1.278011    0.000005
     16          1           0        1.090109    2.250296   -0.000039
     17          1           0       -0.473400    3.045551   -0.000015
 ---------------------------------------------------------------------

 SCF Done:  E(RB3LYP) =  -476.256035712     A.U. after    1 cycles

 The electronic state is 1-A.
 Alpha  occ. eigenvalues --  -19.20714 -19.15273 -14.35716 -10.33191 -10.25722
 Alpha  occ. eigenvalues --  -10.20916 -10.20915 -10.20572 -10.19967 -10.19238
 Alpha  occ. eigenvalues --   -1.11528  -1.02273  -0.93850  -0.85280  -0.77781
 Alpha  occ. eigenvalues --   -0.74228  -0.66812  -0.62878  -0.59988  -0.54208
 Alpha  occ. eigenvalues --   -0.53013  -0.51443  -0.49475  -0.46264  -0.45847
 Alpha  occ. eigenvalues --   -0.44501  -0.43545  -0.40897  -0.39474  -0.37893
 Alpha  occ. eigenvalues --   -0.36107  -0.33301  -0.32334  -0.29029  -0.26846
 Alpha  occ. eigenvalues --   -0.21697
 Alpha virt. eigenvalues --   -0.05584  -0.00571  -0.00275   0.00714   0.01572
 Alpha virt. eigenvalues --    0.03124   0.04087   0.04458   0.05258   0.05304
 Alpha virt. eigenvalues --    0.06830   0.07277   0.08065   0.09251   0.09880

 Mulliken charges:
               1
     1  C   -0.035677
     2  C   -0.450289
     3  C    0.438722
     4  C   -0.923557
     5  C    0.982491
     6  C   -0.738229
     7  C    0.826239
     8  O   -0.488645
     9  N   -0.637292
    10  O   -0.530781
    11  H    0.124878
    12  H    0.126828
    13  H    0.109797
    14  H    0.152357
    15  H    0.385034
    16  H    0.354225
    17  H    0.303897
 Sum of Mulliken charges =   0.00000

 Dipole moment (field-independent basis, Debye):
    X=             -1.2295    Y=              0.5511    Z=             -0.0001  Tot=              1.3474
 Quadrupole moment (field-independent basis, Debye-Ang):
   XX=            -52.7257   YY=            -50.8430   ZZ=            -62.4793
   XY=             -5.2628   XZ=             -0.0001   YZ=             -0.0001

  Exact polarizability: 128.997   4.004 115.738  -0.001  -0.000  54.172
 Approx polarizability: 195.957  11.585 195.014  -0.001  -0.000  78.939

 ******    1 imaginary frequencies (negative Signs) ******

                      1                      2                      3
                      A                      A                      A
 Frequencies --    -54.9442                92.8497               181.6060
 Red. masses --      2.7368                 4.9870                 1.6754
 Frc consts  --      0.0049                 0.0253                 0.0326
 IR Inten    --     91.5698                13.7045                75.2687

                      4                      5                      6
                      A                      A                      A
 Frequencies --    236.9032               256.8695               371.3628
 Red. masses --      4.2102                 5.7669                 5.1267
 Frc consts  --      0.1392                 0.2242                 0.4166
 IR Inten    --      6.3739                 1.0321                 8.3686

                      7                      8                      9
                      A                      A                      A
 Frequencies --    420.3410               428.6898               512.5805
 Red. masses --      5.9001                 3.0147                 4.2060
 Frc consts  --      0.6142                 0.3264                 0.6511
 IR Inten    --      1.0258                 6.5456                 5.0045

                     10                     11                     12
                      A                      A                      A
 Frequencies --    537.7502               570.7526               576.5914
 Red. masses --      2.8879                 6.8394                 1.1953
 Frc consts  --      0.4920                 1.3127                 0.2341
 IR Inten    --     11.6165                 1.5078                94.7588

                     13                     14                     15
                      A                      A                      A
 Frequencies --    626.4977               649.6691               717.0354
 Red. masses --      1.0369                 5.2868                 3.1333
 Frc consts  --      0.2398                 1.3147                 0.9491
 IR Inten    --     21.0315                50.5177                46.5765

                     16                     17                     18
                      A                      A                      A
 Frequencies --    752.2875               763.8518               804.3423
 Red. masses --      4.2571                 1.4870                 3.3253
 Frc consts  --      1.4195                 0.5112                 1.2675
 IR Inten    --     11.8486                54.9444                 2.4715

                     19                     20                     21
                      A                      A                      A
 Frequencies --    861.4269               868.1725               970.2303
 Red. masses --      1.7839                 5.3318                 1.3566
 Frc consts  --      0.7799                 2.3678                 0.7524
 IR Inten    --      3.8032                 6.2316                 0.5563

                     22                     23                     24
                      A                      A                      A
 Frequencies --    990.6661              1041.1777              1076.0370
 Red. masses --      1.3002                 2.0612                 2.0104
 Frc consts  --      0.7518                 1.3165                 1.3715
 IR Inten    --      0.0227                 4.4215                21.9081

                     25                     26                     27
                      A                      A                      A
 Frequencies --   1095.8554              1177.6894              1187.8312
 Red. masses --      3.6441                 1.3482                 1.2278
 Frc consts  --      2.5784                 1.1017                 1.0207
 IR Inten    --    136.9995                88.6456               123.3734

                     28                     29                     30
                      A                      A                      A
 Frequencies --   1205.4782              1312.9763              1346.3504
 Red. masses --      1.5072                 1.9384                 2.0754
 Frc consts  --      1.2904                 1.9689                 2.2165
 IR Inten    --    162.7353                 2.6729                56.2096

                     31                     32                     33
                      A                      A                      A
 Frequencies --   1376.0842              1404.7120              1492.0866
 Red. masses --      2.9557                 5.4128                 2.5935
 Frc consts  --      3.2976                 6.2928                 3.4019
 IR Inten    --     93.8203                48.4821                12.1077

                     34                     35                     36
                      A                      A                      A
 Frequencies --   1523.5488              1598.2009              1628.9104
 Red. masses --      2.2871                 2.8594                 2.1055
 Frc consts  --      3.1279                 4.3031                 3.2915
 IR Inten    --     37.7770                97.3544               192.6901

                     37                     38                     39
                      A                      A                      A
 Frequencies --   1667.5812              1746.3376              3176.0301
 Red. masses --      4.1741                 6.8600                 1.0871
 Frc consts  --      6.8390                12.3262                 6.4610
 IR Inten    --    146.8266               418.9031                 8.8231

                     40                     41                     42
                      A                      A                      A
 Frequencies --   3193.8660              3211.0141              3231.1930
 Red. masses --      1.0919                 1.0922                 1.0942
 Frc consts  --      6.5625                 6.6350                 6.7309
 IR Inten    --     16.8241                10.1423                 4.4485

                     43                     44                     45
                      A                      A                      A
 Frequencies --   3558.5867              3733.3516              3774.6239
 Red. masses --      1.0505                 1.1006                 1.0646
 Frc consts  --      7.8382                 9.0380                 8.9371
 IR Inten    --    110.8532                76.6006                99.4809

 - Thermochemistry -
 -------------------
 Temperature   298.150 Kelvin.  Pressure   1.00000 Atm.
 Atom     1 has atomic number  6 and mass  12.00000

 Molecular mass:   137.04768 amu.
 Principal axes and moments of inertia in atomic units:
                           1         2         3
     Eigenvalues --   786.146741488.076832274.22357
           X            0.99999  -0.00427   0.00001
           Y            0.00427   0.99999   0.00000
           Z           -0.00001  -0.00000   1.00000
 This molecule is an asymmetric top.
 Rotational symmetry number  1.
 Warning -- assumption of classical behavior for rotation
           may cause significant error
 Rotational temperatures (Kelvin)      0.11018     0.05821     0.03809
 Rotational constants (GHZ):           2.29568     1.21280     0.79356
    1 imaginary frequencies ignored.
 Zero-point vibrational energy     346618.0 (Joules/Mol)
                                   82.84368 (Kcal/Mol)
 Warning -- explicit consideration of  11 degrees of freedom as
           vibrations may cause significant error
 Vibrational temperatures:    133.59   261.29   340.85   369.58   534.31
          (Kelvin)            604.78   616.79   737.49   773.70   821.18
                              829.59   901.39   934.73  1031.65  1082.37
                             1099.01  1157.27  1239.40  1249.10  1395.94
                             1425.35  1498.02  1548.18  1576.69  1694.43
                             1709.02  1734.41  1889.08  1937.10  1979.88
                             2021.06  2146.78  2192.04  2299.45  2343.64
                             2399.27  2512.59  4569.59  4595.26  4619.93
                             4648.96  5120.01  5371.45  5430.84

 Zero-point correction=                           0.132020 (Hartree/Particle)
 Thermal correction to Energy=                    0.139888
 Thermal correction to Enthalpy=                  0.140832
 Thermal correction to Gibbs Free Energy=         0.099392
 Sum of electronic and zero-point Energies=           -476.124016
 Sum of electronic and thermal Energies=              -476.116148
 Sum of electronic and thermal Enthalpies=            -476.115204
 Sum of electronic and thermal Free Energies=         -476.156644

                     E (Thermal)             CV                S
                      KCal/Mol        Cal/Mol-Kelvin    Cal/Mol-Kelvin
 Total                   87.781             31.294             87.218
 Electronic               0.000              0.000              0.000
 Translational            0.889              2.981             40.657
 Rotational               0.889              2.981             29.366
 Vibrational             86.003             25.332             17.194
 Vibration     1          0.602              1.954              3.599
 Vibration     2          0.630              1.865              2.312
 Vibration     3          0.656              1.784              1.826
 Vibration     4          0.666              1.751              1.683
 Vibration     5          0.743              1.531              1.074
 Vibration     6          0.783              1.426              0.891
 Vibration     7          0.790              1.408              0.863
 Vibration     8          0.868              1.222              0.627
 Vibration     9          0.893              1.167              0.570
 Vibration    10          0.927              1.095              0.503
 Vibration    11          0.933              1.082              0.492

 Optimization completed.
    -- Stationary point found.
 Normal termination of Gaussian 09 at Sat Jun 22 17:14:04 2024.
