 Gaussian 09, Revision E.01,
 Gaussian 09:  ES64L-G09RevE.01 30-Nov-2015

 -------------------------------------------------------
 # opt freq b3pw91/6-31+g(d,p) EmpiricalDispersion=GD3BJ
 -------------------------------------------------------

 ----------
 [No Title]
 ----------
 Symbolic Z-matrix:
 Charge =  1 Multiplicity = 1

 SCF Done:  E(RB3PW91) =  -476.427435976     A.U. after   14 cycles
 SCF Done:  E(RB3PW91) =  -476.427429419     A.U. after   11 cycles
 SCF Done:  E(RB3PW91) =  -476.427442756     A.U. after   11 cycles
 SCF Done:  E(RB3PW91) =  -476.427450303     A.U. after   10 cycles
 Optimization completed.
    -- Stationary point found.
 Normal termination of Gaussian 09 at Thu Dec 19 12:21:13 2024.

 ----------------------------------------------------------------------
 #N Geom=AllCheck Guess=TCheck SCRF=Check GenChk RB3PW91/6-31+G(d,p) Fr
 eq
 ----------------------------------------------------------------------

 Structure from the checkpoint file:  "B3PWD3BJAnthranilicyang.chk"
 ----------
 [No Title]
 ----------
 Charge =  1 Multiplicity = 1

                         Standard orientation:
 ---------------------------------------------------------------------
 Center     Atomic      Atomic             Coordinates (Angstroms)
 Number     Number       Type             X           Y           Z
 ---------------------------------------------------------------------
      1          6           0       -1.940145   -1.464744    0.000019
      2          6           0       -2.616480   -0.246090   -0.000011
      3          6           0       -1.904663    0.955565   -0.000022
      4          6           0       -0.522095    0.911778    0.000001
      5          6           0        0.183587   -0.302377   -0.000006
      6          6           0       -0.548806   -1.494779    0.000022
      7          6           0        1.663587   -0.305756   -0.000088
      8          8           0        2.209039   -1.504683    0.000153
      9          7           0        0.253503    2.163604    0.000066
     10          8           0        2.339224    0.728705   -0.000205
     11          1           0       -2.497847   -2.395069    0.000029
     12          1           0       -3.701197   -0.222836   -0.000014
     13          1           0       -2.430877    1.906116   -0.000022
     14          1           0       -0.017313   -2.439487    0.000020
     15          1           0        3.178205   -1.418706    0.000152
     16          1           0        0.064743    2.732712    0.829010
     17          1           0        1.288766    1.845619    0.000263
     18          1           0        0.064986    2.732659   -0.828970
 ---------------------------------------------------------------------

 SCF Done:  E(RB3PW91) =  -476.427450303     A.U. after    1 cycles

 The electronic state is 1-A.
 Alpha  occ. eigenvalues --  -19.36774 -19.32329 -14.61433 -10.49854 -10.42164
 Alpha  occ. eigenvalues --  -10.38146 -10.36599 -10.35969 -10.35841 -10.34971
 Alpha  occ. eigenvalues --   -1.30136  -1.21467  -1.17857  -1.04374  -0.95500
 Alpha  occ. eigenvalues --   -0.93050  -0.84693  -0.81388  -0.78438  -0.75868
 Alpha  occ. eigenvalues --   -0.74242  -0.71618  -0.68774  -0.67210  -0.63672
 Alpha  occ. eigenvalues --   -0.63084  -0.61758  -0.61037  -0.57289  -0.54922
 Alpha  occ. eigenvalues --   -0.54240  -0.52857  -0.50492  -0.47242  -0.43978
 Alpha  occ. eigenvalues --   -0.43771
 Alpha virt. eigenvalues --   -0.23214  -0.19176  -0.15647  -0.12596  -0.11180
 Alpha virt. eigenvalues --   -0.10326  -0.08908  -0.08306  -0.07153  -0.06248
 Alpha virt. eigenvalues --   -0.05267  -0.05075  -0.04158  -0.03135  -0.02912

 Mulliken charges:
               1
     1  C   -0.032876
     2  C   -0.472932
     3  C    0.699468
     4  C   -1.418273
     5  C    1.299528
     6  C   -0.787392
     7  C    0.713665
     8  O   -0.413597
     9  N   -0.636367
    10  O   -0.464267
    11  H    0.204390
    12  H    0.205294
    13  H    0.189718
    14  H    0.216051
    15  H    0.421310
    16  H    0.412100
    17  H    0.452080
    18  H    0.412103
 Sum of Mulliken charges =   1.00000

 Dipole moment (field-independent basis, Debye):
    X=             -1.0350    Y=              4.1010    Z=              0.0005  Tot=              4.2296
 Quadrupole moment (field-independent basis, Debye-Ang):
   XX=            -35.4536   YY=            -28.6628   ZZ=            -56.2179
   XY=             -3.5771   XZ=              0.0011   YZ=              0.0010

  Exact polarizability: 116.401   0.488 100.752  -0.000  -0.001  47.644
 Approx polarizability: 181.178   2.018 167.801  -0.001  -0.004  70.309

                      1                      2                      3
                      A                      A                      A
 Frequencies --     90.6989               130.6416               230.4247
 Red. masses --      6.0938                 3.7269                 3.2339
 Frc consts  --      0.0295                 0.0375                 0.1012
 IR Inten    --      6.3268                 1.4613                20.2962

                      4                      5                      6
                      A                      A                      A
 Frequencies --    273.6545               351.0406               379.4430
 Red. masses --      5.2170                 1.1888                 3.9339
 Frc consts  --      0.2302                 0.0863                 0.3337
 IR Inten    --      9.0367                 0.0782                73.6988

                      7                      8                      9
                      A                      A                      A
 Frequencies --    420.9132               436.2066               488.6146
 Red. masses --      3.0289                 7.9170                 3.1256
 Frc consts  --      0.3162                 0.8876                 0.4397
 IR Inten    --      9.5992                 3.3327                 5.7217

                     10                     11                     12
                      A                      A                      A
 Frequencies --    503.8387               565.5365               626.6739
 Red. masses --      4.6018                 6.2862                 1.2952
 Frc consts  --      0.6883                 1.1846                 0.2997
 IR Inten    --      3.9241                 2.8725                69.5177

                     13                     14                     15
                      A                      A                      A
 Frequencies --    663.0886               703.2240               758.9967
 Red. masses --      5.3439                 2.9950                 3.9804
 Frc consts  --      1.3844                 0.8726                 1.3510
 IR Inten    --     89.9053                42.5914                50.0273

                     16                     17                     18
                      A                      A                      A
 Frequencies --    760.3722               809.0067               834.8504
 Red. masses --      1.5821                 2.6469                 5.2622
 Frc consts  --      0.5389                 1.0207                 2.1609
 IR Inten    --     99.7189                 0.6506                13.3078

                     19                     20                     21
                      A                      A                      A
 Frequencies --    898.2584               992.0782              1030.2842
 Red. masses --      1.3579                 1.3675                 1.3497
 Frc consts  --      0.6456                 0.7930                 0.8441
 IR Inten    --      0.0344                 0.5447                 0.0001

                     22                     23                     24
                      A                      A                      A
 Frequencies --   1067.3227              1086.2695              1128.7679
 Red. masses --      2.2793                 2.1958                 1.3152
 Frc consts  --      1.5299                 1.5266                 0.9873
 IR Inten    --      7.9492                21.5547                 8.6036

                     25                     26                     27
                      A                      A                      A
 Frequencies --   1131.8686              1184.2492              1200.8343
 Red. masses --      1.9730                 1.6803                 1.1129
 Frc consts  --      1.4892                 1.3884                 0.9456
 IR Inten    --     74.0108                 6.3085                 7.7018

                     28                     29                     30
                      A                      A                      A
 Frequencies --   1208.8974              1222.2037              1321.7302
 Red. masses --      1.7844                 2.3774                 1.4737
 Frc consts  --      1.5364                 2.0924                 1.5169
 IR Inten    --    193.2541                18.6987                 4.8369

                     31                     32                     33
                      A                      A                      A
 Frequencies --   1396.6557              1442.5894              1486.5042
 Red. masses --      6.1880                 2.0919                 1.9394
 Frc consts  --      7.1118                 2.5649                 2.5249
 IR Inten    --     26.6032               323.1408               217.5443

                     34                     35                     36
                      A                      A                      A
 Frequencies --   1498.3997              1541.1960              1613.7508
 Red. masses --      2.3020                 2.6959                 1.3471
 Frc consts  --      3.0452                 3.7728                 2.0669
 IR Inten    --     59.7934                94.2608                20.0611

                     37                     38                     39
                      A                      A                      A
 Frequencies --   1647.2146              1671.1493              1683.7415
 Red. masses --      3.7673                 1.0429                 4.3972
 Frc consts  --      6.0226                 1.7160                 7.3448
 IR Inten    --      8.1531                38.8827                67.0313

                     40                     41                     42
                      A                      A                      A
 Frequencies --   1749.6883              2540.7139              3210.5740
 Red. masses --      4.5675                 1.1015                 1.0919
 Frc consts  --      8.2385                 4.1894                 6.6315
 IR Inten    --    240.6143               730.3863                 0.5366

                     43                     44                     45
                      A                      A                      A
 Frequencies --   3230.2240              3240.6849              3250.2815
 Red. masses --      1.0905                 1.0951                 1.0965
 Frc consts  --      6.7043                 6.7762                 6.8248
 IR Inten    --      0.1035                 1.2301                 3.2084

                     46                     47                     48
                      A                      A                      A
 Frequencies --   3462.1568              3531.9369              3761.8522
 Red. masses --      1.0520                 1.0945                 1.0651
 Frc consts  --      7.4294                 8.0447                 8.8804
 IR Inten    --     97.2479               101.7784               223.1406

 - Thermochemistry -
 -------------------
 Temperature   298.150 Kelvin.  Pressure   1.00000 Atm.
 Atom     1 has atomic number  6 and mass  12.00000

 Molecular mass:   138.05550 amu.
 Principal axes and moments of inertia in atomic units:
                           1         2         3
     Eigenvalues --   800.028381489.180972279.31603
           X            1.00000   0.00181   0.00001
           Y           -0.00181   1.00000   0.00002
           Z           -0.00001  -0.00002   1.00000
 This molecule is an asymmetric top.
 Rotational symmetry number  1.
 Warning -- assumption of classical behavior for rotation
           may cause significant error
 Rotational temperatures (Kelvin)      0.10826     0.05816     0.03800
 Rotational constants (GHZ):           2.25585     1.21190     0.79179
 Zero-point vibrational energy     385552.3 (Joules/Mol)
                                   92.14920 (Kcal/Mol)
 Warning -- explicit consideration of  11 degrees of freedom as
           vibrations may cause significant error
 Vibrational temperatures:    130.50   187.96   331.53   393.73   505.07
          (Kelvin)            545.93   605.60   627.60   703.01   724.91
                              813.68   901.64   954.04  1011.78  1092.03
                             1094.00  1163.98  1201.16  1292.39  1427.38
                             1482.35  1535.64  1562.90  1624.04  1628.50
                             1703.87  1727.73  1739.33  1758.48  1901.67
                             2009.47  2075.56  2138.75  2155.86  2217.43
                             2321.82  2369.97  2404.41  2422.53  2517.41
                             3655.52  4619.29  4647.57  4662.62  4676.42
                             4981.27  5081.66  5412.46

 Zero-point correction=                           0.146849 (Hartree/Particle)
 Thermal correction to Energy=                    0.155022
 Thermal correction to Enthalpy=                  0.155967
 Thermal correction to Gibbs Free Energy=         0.113844
 Sum of electronic and zero-point Energies=           -476.280601
 Sum of electronic and thermal Energies=              -476.272428
 Sum of electronic and thermal Enthalpies=            -476.271484
 Sum of electronic and thermal Free Energies=         -476.313606

                     E (Thermal)             CV                S
                      KCal/Mol        Cal/Mol-Kelvin    Cal/Mol-Kelvin
 Total                   97.278             32.168             88.654
 Electronic               0.000              0.000              0.000
 Translational            0.889              2.981             40.679
 Rotational               0.889              2.981             29.386
 Vibrational             95.501             26.207             18.588
 Vibration     1          0.602              1.956              3.645
 Vibration     2          0.612              1.923              2.937
 Vibration     3          0.652              1.795              1.876
 Vibration     4          0.676              1.722              1.573
 Vibration     5          0.728              1.573              1.162
 Vibration     6          0.749              1.514              1.041
 Vibration     7          0.783              1.425              0.889
 Vibration     8          0.797              1.391              0.839
 Vibration     9          0.845              1.275              0.687
 Vibration    10          0.859              1.241              0.649
 Vibration    11          0.921              1.106              0.513

 Normal termination of Gaussian 09 at Thu Dec 19 12:21:52 2024.
