 Gaussian 09, Revision E.01,
 Gaussian 09:  ES64L-G09RevE.01 30-Nov-2015

 -------------------------------------------------------
 # opt freq b3pw91/6-31+g(d,p) EmpiricalDispersion=GD3BJ
 -------------------------------------------------------

 ----------
 [No Title]
 ----------
 Symbolic Z-matrix:
 Charge =  0 Multiplicity = 1

 SCF Done:  E(RB3PW91) =  -476.070474378     A.U. after   15 cycles
 SCF Done:  E(RB3PW91) =  -476.070481642     A.U. after   11 cycles
 SCF Done:  E(RB3PW91) =  -476.070485456     A.U. after   10 cycles
 SCF Done:  E(RB3PW91) =  -476.070486351     A.U. after   10 cycles
 SCF Done:  E(RB3PW91) =  -476.070486778     A.U. after   10 cycles
 Optimization completed.
    -- Stationary point found.
 Normal termination of Gaussian 09 at Thu Dec 19 12:02:59 2024.

 ----------------------------------------------------------------------
 #N Geom=AllCheck Guess=TCheck SCRF=Check GenChk RB3PW91/6-31+G(d,p) Fr
 eq
 ----------------------------------------------------------------------

 Structure from the checkpoint file:  "B3PWD3BJAnthranilic.chk"
 ----------
 [No Title]
 ----------
 Charge =  0 Multiplicity = 1

                         Standard orientation:
 ---------------------------------------------------------------------
 Center     Atomic      Atomic             Coordinates (Angstroms)
 Number     Number       Type             X           Y           Z
 ---------------------------------------------------------------------
      1          6           0       -1.859012   -1.515066   -0.000001
      2          6           0       -2.583025   -0.312927    0.000043
      3          6           0       -1.935819    0.907821    0.000043
      4          6           0       -0.524629    0.987056   -0.000002
      5          6           0        0.211142   -0.232318   -0.000050
      6          6           0       -0.477528   -1.459888   -0.000044
      7          6           0        1.672061   -0.206157   -0.000101
      8          8           0        2.246748   -1.431462    0.000035
      9          7           0        0.088666    2.196786   -0.000002
     10          8           0        2.373173    0.801972    0.000036
     11          1           0       -2.372995   -2.470207   -0.000001
     12          1           0       -3.669425   -0.335101    0.000078
     13          1           0       -2.509934    1.830756    0.000078
     14          1           0        0.106780   -2.373036   -0.000078
     15          1           0        3.203217   -1.275119    0.000110
     16          1           0        1.100115    2.229533   -0.000071
     17          1           0       -0.456921    3.040473   -0.000000
 ---------------------------------------------------------------------

 SCF Done:  E(RB3PW91) =  -476.070486778     A.U. after    1 cycles

 The electronic state is 1-A.
 Alpha  occ. eigenvalues --  -19.19692 -19.14135 -14.34580 -10.31618 -10.24331
 Alpha  occ. eigenvalues --  -10.19556 -10.19552 -10.19236 -10.18607 -10.17870
 Alpha  occ. eigenvalues --   -1.12174  -1.02677  -0.94344  -0.85697  -0.78115
 Alpha  occ. eigenvalues --   -0.74484  -0.67092  -0.63129  -0.60212  -0.54441
 Alpha  occ. eigenvalues --   -0.53168  -0.51532  -0.49730  -0.46305  -0.46177
 Alpha  occ. eigenvalues --   -0.44496  -0.43530  -0.40900  -0.39756  -0.37783
 Alpha  occ. eigenvalues --   -0.35943  -0.33450  -0.32515  -0.29003  -0.27022
 Alpha  occ. eigenvalues --   -0.21768
 Alpha virt. eigenvalues --   -0.05541  -0.00418   0.00911   0.01863   0.02701
 Alpha virt. eigenvalues --    0.04201   0.04299   0.05548   0.06409   0.06468
 Alpha virt. eigenvalues --    0.07912   0.08252   0.09269   0.10457   0.11039

 Mulliken charges:
               1
     1  C   -0.075748
     2  C   -0.541382
     3  C    0.614608
     4  C   -1.299045
     5  C    1.188181
     6  C   -0.709208
     7  C    0.742473
     8  O   -0.468449
     9  N   -0.609911
    10  O   -0.521556
    11  H    0.151556
    12  H    0.153047
    13  H    0.134085
    14  H    0.175264
    15  H    0.387801
    16  H    0.362162
    17  H    0.316122
 Sum of Mulliken charges =  -0.00000

 Dipole moment (field-independent basis, Debye):
    X=             -1.1366    Y=              0.5565    Z=             -0.0002  Tot=              1.2655
 Quadrupole moment (field-independent basis, Debye-Ang):
   XX=            -51.6828   YY=            -49.8265   ZZ=            -62.0456
   XY=             -5.2886   XZ=             -0.0003   YZ=             -0.0003

  Exact polarizability: 126.983   4.079 114.042   0.000   0.001  52.584
 Approx polarizability: 193.167  11.845 192.444  -0.001   0.002  75.362

 ******    1 imaginary frequencies (negative Signs) ******

                      1                      2                      3
                      A                      A                      A
 Frequencies --    -47.6712                92.9723               185.8882
 Red. masses --      2.9323                 4.9717                 1.6036
 Frc consts  --      0.0039                 0.0253                 0.0326
 IR Inten    --     85.4845                13.5932                82.0921

                      4                      5                      6
                      A                      A                      A
 Frequencies --    235.7337               255.7043               370.2948
 Red. masses --      4.2605                 5.7395                 4.9477
 Frc consts  --      0.1395                 0.2211                 0.3997
 IR Inten    --      6.2033                 1.0166                 8.6490

                      7                      8                      9
                      A                      A                      A
 Frequencies --    419.6433               425.7176               512.4900
 Red. masses --      5.9341                 3.0365                 4.2464
 Frc consts  --      0.6157                 0.3242                 0.6571
 IR Inten    --      1.0156                 5.8450                 5.0810

                     10                     11                     12
                      A                      A                      A
 Frequencies --    536.3465               569.2565               580.3319
 Red. masses --      2.8724                 6.8552                 1.1963
 Frc consts  --      0.4868                 1.3088                 0.2374
 IR Inten    --     13.1504                 1.1815                93.7334

                     13                     14                     15
                      A                      A                      A
 Frequencies --    636.8195               649.2760               716.4606
 Red. masses --      1.0383                 5.2492                 3.1420
 Frc consts  --      0.2481                 1.3038                 0.9503
 IR Inten    --     23.8984                52.6382                44.6926

                     16                     17                     18
                      A                      A                      A
 Frequencies --    756.7899               761.8806               805.0067
 Red. masses --      4.1525                 1.4894                 3.4904
 Frc consts  --      1.4012                 0.5094                 1.3327
 IR Inten    --     14.6750                60.0262                 2.7267

                     19                     20                     21
                      A                      A                      A
 Frequencies --    858.5154               868.9526               969.0424
 Red. masses --      1.7317                 5.3053                 1.3564
 Frc consts  --      0.7520                 2.3602                 0.7504
 IR Inten    --      3.5631                 5.9993                 0.6554

                     22                     23                     24
                      A                      A                      A
 Frequencies --    989.3488              1043.5674              1080.3234
 Red. masses --      1.2979                 1.9757                 1.8777
 Frc consts  --      0.7485                 1.2677                 1.2912
 IR Inten    --      0.0098                 4.0627                11.4566

                     25                     26                     27
                      A                      A                      A
 Frequencies --   1106.4807              1178.2651              1187.4088
 Red. masses --      3.8483                 1.3374                 1.1550
 Frc consts  --      2.7759                 1.0940                 0.9595
 IR Inten    --    118.9629                88.8343                69.6033

                     28                     29                     30
                      A                      A                      A
 Frequencies --   1208.4736              1314.5551              1353.8535
 Red. masses --      1.5714                 1.6883                 2.1896
 Frc consts  --      1.3521                 1.7190                 2.3646
 IR Inten    --    203.8380                 1.9153                47.6556

                     31                     32                     33
                      A                      A                      A
 Frequencies --   1388.7701              1424.6371              1497.4728
 Red. masses --      3.1827                 5.9876                 2.6615
 Frc consts  --      3.6167                 7.1600                 3.5164
 IR Inten    --    132.6551                45.3701                 5.3643

                     34                     35                     36
                      A                      A                      A
 Frequencies --   1527.2389              1603.9891              1635.1281
 Red. masses --      2.3007                 2.2695                 2.8732
 Frc consts  --      3.1618                 3.4402                 4.5261
 IR Inten    --     37.4428               132.6213               185.7102

                     37                     38                     39
                      A                      A                      A
 Frequencies --   1680.9176              1765.8766              3188.3143
 Red. masses --      4.8772                 7.3427                 1.0871
 Frc consts  --      8.1193                13.4905                 6.5107
 IR Inten    --    128.2981               427.2792                 7.8381

                     40                     41                     42
                      A                      A                      A
 Frequencies --   3205.8647              3222.6732              3240.2338
 Red. masses --      1.0924                 1.0919                 1.0953
 Frc consts  --      6.6147                 6.6811                 6.7753
 IR Inten    --     15.6089                 7.8492                 5.0596

                     43                     44                     45
                      A                      A                      A
 Frequencies --   3563.4629              3754.9970              3804.9004
 Red. masses --      1.0523                 1.0991                 1.0645
 Frc consts  --      7.8728                 9.1308                 9.0799
 IR Inten    --    117.7860                80.5206               103.7902

 - Thermochemistry -
 -------------------
 Temperature   298.150 Kelvin.  Pressure   1.00000 Atm.
 Atom     1 has atomic number  6 and mass  12.00000

 Molecular mass:   137.04768 amu.
 Principal axes and moments of inertia in atomic units:
                           1         2         3
     Eigenvalues --   781.879111481.243282263.12238
           X            0.99999  -0.00409   0.00000
           Y            0.00409   0.99999  -0.00000
           Z           -0.00000   0.00000   1.00000
 This molecule is an asymmetric top.
 Rotational symmetry number  1.
 Warning -- assumption of classical behavior for rotation
           may cause significant error
 Rotational temperatures (Kelvin)      0.11078     0.05847     0.03827
 Rotational constants (GHZ):           2.30821     1.21840     0.79746
    1 imaginary frequencies ignored.
 Zero-point vibrational energy     347957.0 (Joules/Mol)
                                   83.16373 (Kcal/Mol)
 Warning -- explicit consideration of  11 degrees of freedom as
           vibrations may cause significant error
 Vibrational temperatures:    133.77   267.45   339.17   367.90   532.77
          (Kelvin)            603.77   612.51   737.36   771.68   819.03
                              834.97   916.24   934.16  1030.83  1088.85
                             1096.17  1158.22  1235.21  1250.23  1394.23
                             1423.45  1501.46  1554.34  1591.98  1695.26
                             1708.41  1738.72  1891.35  1947.89  1998.13
                             2049.73  2154.53  2197.35  2307.78  2352.58
                             2418.46  2540.70  4587.27  4612.52  4636.70
                             4661.97  5127.02  5402.60  5474.40

 Zero-point correction=                           0.132530 (Hartree/Particle)
 Thermal correction to Energy=                    0.140389
 Thermal correction to Enthalpy=                  0.141333
 Thermal correction to Gibbs Free Energy=         0.099919
 Sum of electronic and zero-point Energies=           -475.937957
 Sum of electronic and thermal Energies=              -475.930098
 Sum of electronic and thermal Enthalpies=            -475.929154
 Sum of electronic and thermal Free Energies=         -475.970568

                     E (Thermal)             CV                S
                      KCal/Mol        Cal/Mol-Kelvin    Cal/Mol-Kelvin
 Total                   88.095             31.240             87.164
 Electronic               0.000              0.000              0.000
 Translational            0.889              2.981             40.657
 Rotational               0.889              2.981             29.351
 Vibrational             86.318             25.278             17.156
 Vibration     1          0.602              1.954              3.597
 Vibration     2          0.632              1.859              2.268
 Vibration     3          0.655              1.786              1.835
 Vibration     4          0.666              1.753              1.691
 Vibration     5          0.742              1.533              1.079
 Vibration     6          0.782              1.428              0.893
 Vibration     7          0.788              1.414              0.873
 Vibration     8          0.868              1.222              0.628
 Vibration     9          0.891              1.170              0.573
 Vibration    10          0.925              1.098              0.506
 Vibration    11          0.937              1.074              0.485

 Optimization completed.
    -- Stationary point found.
 Normal termination of Gaussian 09 at Thu Dec 19 12:03:42 2024.
