 Gaussian 09, Revision E.01,
 Gaussian 09:  ES64L-G09RevE.01 30-Nov-2015

 -----------------------------------------
 # opt freq cam-b3lyp/6-31+g(d,p) em=gd3bj
 -----------------------------------------

 ----------
 [No Title]
 ----------
 Symbolic Z-matrix:
 Charge =  0 Multiplicity = 1

 SCF Done:  E(RCAM-B3LYP) =  -476.011098415     A.U. after   16 cycles
 SCF Done:  E(RCAM-B3LYP) =  -476.011498973     A.U. after   13 cycles
 SCF Done:  E(RCAM-B3LYP) =  -476.011495360     A.U. after   13 cycles
 SCF Done:  E(RCAM-B3LYP) =  -476.011523669     A.U. after   12 cycles
 SCF Done:  E(RCAM-B3LYP) =  -476.011530837     A.U. after   11 cycles
 SCF Done:  E(RCAM-B3LYP) =  -476.011532223     A.U. after   10 cycles
 Optimization completed.
    -- Stationary point found.
 Normal termination of Gaussian 09 at Sat Jun 22 17:16:52 2024.

 ----------------------------------------------------------------------
 #N Geom=AllCheck Guess=TCheck SCRF=Check GenChk RCAM-B3LYP/6-31+G(d,p)
  Freq
 ----------------------------------------------------------------------

 Structure from the checkpoint file:  "gd3camb3lypAnthranilic.chk"
 ----------
 [No Title]
 ----------
 Charge =  0 Multiplicity = 1

                         Standard orientation:
 ---------------------------------------------------------------------
 Center     Atomic      Atomic             Coordinates (Angstroms)
 Number     Number       Type             X           Y           Z
 ---------------------------------------------------------------------
      1          6           0       -1.851675   -1.517193    0.000013
      2          6           0       -2.577420   -0.318549    0.000017
      3          6           0       -1.934852    0.900545    0.000013
      4          6           0       -0.525977    0.983261    0.000006
      5          6           0        0.209388   -0.229372    0.000007
      6          6           0       -0.473996   -1.457637    0.000010
      7          6           0        1.672401   -0.203220    0.000003
      8          8           0        2.247200   -1.425269    0.000019
      9          7           0        0.078764    2.199915    0.000004
     10          8           0        2.371190    0.800973   -0.000069
     11          1           0       -2.362526   -2.472903    0.000014
     12          1           0       -3.662858   -0.343807    0.000020
     13          1           0       -2.509938    1.821755    0.000014
     14          1           0        0.112690   -2.368157    0.000009
     15          1           0        3.205230   -1.275917   -0.000021
     16          1           0        1.088040    2.249280   -0.000053
     17          1           0       -0.476318    3.037697   -0.000026
 ---------------------------------------------------------------------

 SCF Done:  E(RCAM-B3LYP) =  -476.011532223     A.U. after    1 cycles

 The electronic state is 1-A.
 Alpha  occ. eigenvalues --  -19.28116 -19.22569 -14.42581 -10.40908 -10.33011
 Alpha  occ. eigenvalues --  -10.28135 -10.27917 -10.27814 -10.27004 -10.26266
 Alpha  occ. eigenvalues --   -1.20214  -1.10512  -1.01987  -0.93660  -0.85933
 Alpha  occ. eigenvalues --   -0.82130  -0.74458  -0.70399  -0.67300  -0.61396
 Alpha  occ. eigenvalues --   -0.59869  -0.58307  -0.56696  -0.53457  -0.53105
 Alpha  occ. eigenvalues --   -0.51142  -0.50133  -0.47527  -0.46506  -0.44156
 Alpha  occ. eigenvalues --   -0.42218  -0.39891  -0.38712  -0.35484  -0.32240
 Alpha  occ. eigenvalues --   -0.26658
 Alpha virt. eigenvalues --   -0.00883   0.02718   0.03638   0.04097   0.04522
 Alpha virt. eigenvalues --    0.05873   0.07057   0.07703   0.08206   0.09390
 Alpha virt. eigenvalues --    0.09479   0.09741   0.10767   0.12177   0.12737

 Mulliken charges:
               1
     1  C   -0.046439
     2  C   -0.426278
     3  C    0.370663
     4  C   -0.852708
     5  C    0.935996
     6  C   -0.718009
     7  C    0.833674
     8  O   -0.500299
     9  N   -0.660457
    10  O   -0.538265
    11  H    0.132037
    12  H    0.134362
    13  H    0.117746
    14  H    0.160461
    15  H    0.392407
    16  H    0.356846
    17  H    0.308264
 Sum of Mulliken charges =   0.00000

 Dipole moment (field-independent basis, Debye):
    X=             -1.1634    Y=              0.4381    Z=             -0.0001  Tot=              1.2432
 Quadrupole moment (field-independent basis, Debye-Ang):
   XX=            -52.4215   YY=            -51.0396   ZZ=            -62.5696
   XY=             -5.4251   XZ=              0.0000   YZ=             -0.0001

  Exact polarizability: 123.875   4.181 112.845  -0.000  -0.000  53.343
 Approx polarizability: 141.130   8.203 142.722  -0.001  -0.001  66.176

                      1                      2                      3
                      A                      A                      A
 Frequencies --     61.7855               103.2746               199.5052
 Red. masses --      6.2099                 3.5428                 1.3498
 Frc consts  --      0.0140                 0.0223                 0.0317
 IR Inten    --     35.4216                36.8377               119.9875

                      4                      5                      6
                      A                      A                      A
 Frequencies --    240.6284               259.4929               375.0924
 Red. masses --      4.5266                 5.7807                 5.1422
 Frc consts  --      0.1544                 0.2293                 0.4263
 IR Inten    --      3.6445                 0.9708                 7.7158

                      7                      8                      9
                      A                      A                      A
 Frequencies --    423.1398               435.7046               518.2817
 Red. masses --      5.8732                 2.9937                 4.1743
 Frc consts  --      0.6196                 0.3348                 0.6606
 IR Inten    --      0.8727                 6.5882                 4.7537

                     10                     11                     12
                      A                      A                      A
 Frequencies --    547.2549               576.7292               587.2709
 Red. masses --      2.8079                 6.8323                 1.2036
 Frc consts  --      0.4955                 1.3389                 0.2446
 IR Inten    --     10.4674                 1.5591               100.3836

                     13                     14                     15
                      A                      A                      A
 Frequencies --    622.0716               657.3920               730.5125
 Red. masses --      1.0411                 5.2262                 2.9220
 Frc consts  --      0.2374                 1.3307                 0.9187
 IR Inten    --     18.4963                55.5056                52.7117

                     16                     17                     18
                      A                      A                      A
 Frequencies --    764.1908               779.3118               821.3889
 Red. masses --      4.1177                 1.5052                 3.3361
 Frc consts  --      1.4168                 0.5386                 1.3262
 IR Inten    --     16.9649                57.9180                 4.2614

                     19                     20                     21
                      A                      A                      A
 Frequencies --    877.3353               882.5662               996.6823
 Red. masses --      5.2575                 1.7991                 1.3622
 Frc consts  --      2.3843                 0.8257                 0.7973
 IR Inten    --      7.3936                 4.9231                 0.6141

                     22                     23                     24
                      A                      A                      A
 Frequencies --   1017.2337              1051.5960              1089.8872
 Red. masses --      1.3242                 1.9664                 1.8336
 Frc consts  --      0.8073                 1.2812                 1.2833
 IR Inten    --      0.0579                 6.9188                10.2651

                     25                     26                     27
                      A                      A                      A
 Frequencies --   1119.0522              1188.2225              1192.9082
 Red. masses --      3.8977                 1.3068                 1.2673
 Frc consts  --      2.8758                 1.0871                 1.0626
 IR Inten    --     99.9858               170.0686                43.3034

                     28                     29                     30
                      A                      A                      A
 Frequencies --   1216.4393              1322.7899              1349.5908
 Red. masses --      1.5154                 2.0344                 2.0560
 Frc consts  --      1.3212                 2.0974                 2.2064
 IR Inten    --    198.1392                 8.9076                58.1934

                     31                     32                     33
                      A                      A                      A
 Frequencies --   1389.3523              1424.2492              1512.6245
 Red. masses --      2.8669                 4.8930                 2.6693
 Frc consts  --      3.2605                 5.8478                 3.5984
 IR Inten    --     62.5221               110.2949                12.3690

                     34                     35                     36
                      A                      A                      A
 Frequencies --   1543.2961              1624.4790              1656.3753
 Red. masses --      2.3439                 1.9607                 3.0199
 Frc consts  --      3.2892                 3.0486                 4.8815
 IR Inten    --     38.7880               151.5322               187.3523

                     37                     38                     39
                      A                      A                      A
 Frequencies --   1701.3016              1790.4345              3200.3328
 Red. masses --      5.1758                 7.8578                 1.0878
 Frc consts  --      8.8265                14.8411                 6.5646
 IR Inten    --    110.7244               473.7270                 7.1049

                     40                     41                     42
                      A                      A                      A
 Frequencies --   3217.7596              3234.4939              3252.4341
 Red. masses --      1.0931                 1.0925                 1.0955
 Frc consts  --      6.6681                 6.7344                 6.8278
 IR Inten    --     13.2846                 6.3642                 3.7330

                     43                     44                     45
                      A                      A                      A
 Frequencies --   3593.0381              3761.8186              3813.3087
 Red. masses --      1.0502                 1.1012                 1.0646
 Frc consts  --      7.9878                 9.1818                 9.1211
 IR Inten    --    119.0449                86.3193               119.7679

 - Thermochemistry -
 -------------------
 Temperature   298.150 Kelvin.  Pressure   1.00000 Atm.
 Atom     1 has atomic number  6 and mass  12.00000

 Molecular mass:   137.04768 amu.
 Principal axes and moments of inertia in atomic units:
                           1         2         3
     Eigenvalues --   780.749061477.776032258.52509
           X            0.99999  -0.00435   0.00001
           Y            0.00435   0.99999   0.00001
           Z           -0.00001  -0.00001   1.00000
 This molecule is an asymmetric top.
 Rotational symmetry number  1.
 Warning -- assumption of classical behavior for rotation
           may cause significant error
 Rotational temperatures (Kelvin)      0.11094     0.05861     0.03835
 Rotational constants (GHZ):           2.31155     1.22125     0.79908
 Zero-point vibrational energy     351239.3 (Joules/Mol)
                                   83.94821 (Kcal/Mol)
 Warning -- explicit consideration of  12 degrees of freedom as
           vibrations may cause significant error
 Vibrational temperatures:     88.90   148.59   287.04   346.21   373.35
          (Kelvin)            539.67   608.80   626.88   745.69   787.38
                              829.78   844.95   895.02   945.84  1051.04
                             1099.50  1121.25  1181.79  1262.29  1269.81
                             1434.00  1463.57  1513.01  1568.10  1610.06
                             1709.59  1716.33  1750.18  1903.20  1941.76
                             1998.97  2049.17  2176.33  2220.46  2337.26
                             2383.15  2447.79  2576.03  4604.56  4629.63
                             4653.71  4679.52  5169.57  5412.41  5486.49

 Zero-point correction=                           0.133780 (Hartree/Particle)
 Thermal correction to Energy=                    0.142323
 Thermal correction to Enthalpy=                  0.143267
 Thermal correction to Gibbs Free Energy=         0.100061
 Sum of electronic and zero-point Energies=           -475.877752
 Sum of electronic and thermal Energies=              -475.869209
 Sum of electronic and thermal Enthalpies=            -475.868265
 Sum of electronic and thermal Free Energies=         -475.911471

                     E (Thermal)             CV                S
                      KCal/Mol        Cal/Mol-Kelvin    Cal/Mol-Kelvin
 Total                   89.309             32.810             90.934
 Electronic               0.000              0.000              0.000
 Translational            0.889              2.981             40.657
 Rotational               0.889              2.981             29.345
 Vibrational             87.532             26.848             20.932
 Vibration     1          0.597              1.973              4.399
 Vibration     2          0.605              1.947              3.392
 Vibration     3          0.638              1.841              2.138
 Vibration     4          0.658              1.778              1.798
 Vibration     5          0.668              1.747              1.665
 Vibration     6          0.746              1.523              1.059
 Vibration     7          0.785              1.420              0.881
 Vibration     8          0.796              1.392              0.840
 Vibration     9          0.873              1.210              0.614
 Vibration    10          0.902              1.146              0.550
 Vibration    11          0.933              1.082              0.491
 Vibration    12          0.944              1.059              0.472

 Optimization completed.
    -- Stationary point found.
 Normal termination of Gaussian 09 at Sat Jun 22 17:18:28 2024.
