 Gaussian 09, Revision E.01,
 Gaussian 09:  ES64L-G09RevE.01 30-Nov-2015

 -----------------------------------------
 # opt freq cam-b3lyp/6-31+g(d,p) em=gd3bj
 -----------------------------------------

 ----------
 [No Title]
 ----------
 Symbolic Z-matrix:
 Charge =  1 Multiplicity = 1

 SCF Done:  E(RCAM-B3LYP) =  -476.362615858     A.U. after   16 cycles
 SCF Done:  E(RCAM-B3LYP) =  -476.362927970     A.U. after   12 cycles
 SCF Done:  E(RCAM-B3LYP) =  -476.362695503     A.U. after   14 cycles
 SCF Done:  E(RCAM-B3LYP) =  -476.363023026     A.U. after    9 cycles
 SCF Done:  E(RCAM-B3LYP) =  -476.363056087     A.U. after   11 cycles
 SCF Done:  E(RCAM-B3LYP) =  -476.363056635     A.U. after   10 cycles
 SCF Done:  E(RCAM-B3LYP) =  -476.363056669     A.U. after    9 cycles
 SCF Done:  E(RCAM-B3LYP) =  -476.363056800     A.U. after    9 cycles
 Optimization completed.
    -- Stationary point found.
 Normal termination of Gaussian 09 at Sat Jun 22 17:16:12 2024.

 ----------------------------------------------------------------------
 #N Geom=AllCheck Guess=TCheck SCRF=Check GenChk RCAM-B3LYP/6-31+G(d,p)
  Freq
 ----------------------------------------------------------------------

 Structure from the checkpoint file:  "gd3camb3lypAnthranilicyang.chk"
 ----------
 [No Title]
 ----------
 Charge =  1 Multiplicity = 1

                         Standard orientation:
 ---------------------------------------------------------------------
 Center     Atomic      Atomic             Coordinates (Angstroms)
 Number     Number       Type             X           Y           Z
 ---------------------------------------------------------------------
      1          6           0        1.929211   -1.470852    0.000053
      2          6           0        2.610631   -0.259121   -0.000029
      3          6           0        1.906220    0.943625   -0.000033
      4          6           0        0.526297    0.907719    0.000042
      5          6           0       -0.183925   -0.299816    0.000114
      6          6           0        0.539674   -1.492675    0.000119
      7          6           0       -1.667130   -0.300576    0.000129
      8          8           0       -2.213470   -1.496923   -0.000054
      9          7           0       -0.235221    2.171862    0.000082
     10          8           0       -2.337598    0.730994   -0.000322
     11          1           0        2.480905   -2.403821    0.000055
     12          1           0        3.694676   -0.242071   -0.000085
     13          1           0        2.437343    1.890732   -0.000077
     14          1           0        0.003202   -2.433682    0.000171
     15          1           0       -3.183797   -1.416610   -0.000325
     16          1           0       -0.037401    2.738731   -0.829378
     17          1           0       -1.268442    1.882543    0.000210
     18          1           0       -0.037259    2.738757    0.829491
 ---------------------------------------------------------------------

 SCF Done:  E(RCAM-B3LYP) =  -476.363056800     A.U. after    1 cycles

 The electronic state is 1-A.
 Alpha  occ. eigenvalues --  -19.44927 -19.40414 -14.70088 -10.58891 -10.50709
 Alpha  occ. eigenvalues --  -10.46509 -10.45010 -10.44329 -10.44191 -10.43306
 Alpha  occ. eigenvalues --   -1.37868  -1.29041  -1.25786  -1.12349  -1.03177
 Alpha  occ. eigenvalues --   -1.00691  -0.91856  -0.88609  -0.85507  -0.82838
 Alpha  occ. eigenvalues --   -0.81214  -0.78555  -0.75496  -0.73989  -0.70669
 Alpha  occ. eigenvalues --   -0.69788  -0.68420  -0.67623  -0.63715  -0.61514
 Alpha  occ. eigenvalues --   -0.60484  -0.59046  -0.56653  -0.53403  -0.48966
 Alpha  occ. eigenvalues --   -0.48839
 Alpha virt. eigenvalues --   -0.18202  -0.14310  -0.13453  -0.08804  -0.08148
 Alpha virt. eigenvalues --   -0.07169  -0.06562  -0.06345  -0.05318  -0.04541
 Alpha virt. eigenvalues --   -0.03198  -0.02969  -0.01931  -0.01439  -0.00516

 Mulliken charges:
               1
     1  C    0.010471
     2  C   -0.353944
     3  C    0.488637
     4  C   -0.957633
     5  C    1.012995
     6  C   -0.810614
     7  C    0.789461
     8  O   -0.445428
     9  N   -0.684737
    10  O   -0.485451
    11  H    0.184122
    12  H    0.185011
    13  H    0.172651
    14  H    0.200438
    15  H    0.424066
    16  H    0.409693
    17  H    0.450559
    18  H    0.409700
 Sum of Mulliken charges =   1.00000

 Dipole moment (field-independent basis, Debye):
    X=              1.1039    Y=              4.2642    Z=              0.0006  Tot=              4.4048
 Quadrupole moment (field-independent basis, Debye-Ang):
   XX=            -36.6691   YY=            -29.1441   ZZ=            -56.6519
   XY=              3.7118   XZ=             -0.0006   YZ=              0.0017

  Exact polarizability: 113.520  -0.679  99.946   0.001  -0.002  48.279
 Approx polarizability: 133.496  -1.125 128.568   0.001  -0.004  61.865

                      1                      2                      3
                      A                      A                      A
 Frequencies --     90.1994               134.0544               234.2463
 Red. masses --      6.0436                 3.6879                 3.1895
 Frc consts  --      0.0290                 0.0390                 0.1031
 IR Inten    --      6.6530                 1.7591                19.7932

                      4                      5                      6
                      A                      A                      A
 Frequencies --    275.1138               334.5902               376.6221
 Red. masses --      5.2123                 1.1875                 3.8701
 Frc consts  --      0.2324                 0.0783                 0.3234
 IR Inten    --      9.7642                 0.3688                69.1276

                      7                      8                      9
                      A                      A                      A
 Frequencies --    430.6616               435.5440               497.7421
 Red. masses --      3.0087                 8.0468                 3.1347
 Frc consts  --      0.3288                 0.8994                 0.4576
 IR Inten    --      9.7475                 2.7419                 5.1311

                     10                     11                     12
                      A                      A                      A
 Frequencies --    507.2005               571.5368               630.8435
 Red. masses --      4.5696                 6.2514                 1.2837
 Frc consts  --      0.6926                 1.2031                 0.3010
 IR Inten    --      4.4832                 3.0382                72.8715

                     13                     14                     15
                      A                      A                      A
 Frequencies --    668.4681               714.5042               762.9602
 Red. masses --      5.2927                 2.9838                 3.9583
 Frc consts  --      1.3934                 0.8975                 1.3576
 IR Inten    --     87.4885                50.3124                49.5412

                     16                     17                     18
                      A                      A                      A
 Frequencies --    774.5954               822.7193               841.4191
 Red. masses --      1.5999                 2.5572                 5.2021
 Frc consts  --      0.5656                 1.0198                 2.1700
 IR Inten    --     94.2887                 0.4859                13.5341

                     19                     20                     21
                      A                      A                      A
 Frequencies --    917.7987              1013.9538              1053.8734
 Red. masses --      1.3679                 1.3718                 1.3641
 Frc consts  --      0.6789                 0.8310                 0.8927
 IR Inten    --      0.0338                 0.5000                 0.0008

                     22                     23                     24
                      A                      A                      A
 Frequencies --   1075.7965              1092.9009              1131.7222
 Red. masses --      2.2066                 1.9886                 1.3309
 Frc consts  --      1.5046                 1.3995                 1.0044
 IR Inten    --     12.8362                24.0788                 9.2942

                     25                     26                     27
                      A                      A                      A
 Frequencies --   1137.5282              1193.7714              1207.1857
 Red. masses --      2.1943                 1.6833                 1.1335
 Frc consts  --      1.6729                 1.4133                 0.9732
 IR Inten    --     61.5925                 2.9400                 3.7900

                     28                     29                     30
                      A                      A                      A
 Frequencies --   1217.4794              1230.0980              1334.8005
 Red. masses --      1.7228                 2.5775                 1.5564
 Frc consts  --      1.5045                 2.2978                 1.6338
 IR Inten    --    197.1436                12.6712                 1.9535

                     31                     32                     33
                      A                      A                      A
 Frequencies --   1373.4216              1455.4744              1505.8200
 Red. masses --      4.7534                 2.4665                 1.7780
 Frc consts  --      5.2827                 3.0785                 2.3754
 IR Inten    --     29.3067               300.2357               196.1174

                     34                     35                     36
                      A                      A                      A
 Frequencies --   1517.0976              1560.2436              1625.7914
 Red. masses --      2.0448                 2.7405                 1.2208
 Frc consts  --      2.7728                 3.9306                 1.9012
 IR Inten    --     96.5853                84.3991                22.0893

                     37                     38                     39
                      A                      A                      A
 Frequencies --   1670.0488              1682.6112              1706.7017
 Red. masses --      4.5937                 1.0438                 4.9266
 Frc consts  --      7.5487                 1.7411                 8.4550
 IR Inten    --      3.4850                41.4237                61.4635

                     40                     41                     42
                      A                      A                      A
 Frequencies --   1773.2381              2679.7897              3218.9705
 Red. masses --      5.4497                 1.0932                 1.0927
 Frc consts  --     10.0961                 4.6254                 6.6710
 IR Inten    --    287.1477               694.7251                 0.5726

                     43                     44                     45
                      A                      A                      A
 Frequencies --   3240.2380              3250.7076              3260.6028
 Red. masses --      1.0914                 1.0958                 1.0966
 Frc consts  --      6.7510                 6.8222                 6.8693
 IR Inten    --      0.1045                 1.6957                 4.1607

                     46                     47                     48
                      A                      A                      A
 Frequencies --   3462.8577              3527.0001              3766.3201
 Red. masses --      1.0527                 1.0946                 1.0652
 Frc consts  --      7.4375                 8.0230                 8.9023
 IR Inten    --    111.2861               110.1136               238.0296

 - Thermochemistry -
 -------------------
 Temperature   298.150 Kelvin.  Pressure   1.00000 Atm.
 Atom     1 has atomic number  6 and mass  12.00000

 Molecular mass:   138.05550 amu.
 Principal axes and moments of inertia in atomic units:
                           1         2         3
     Eigenvalues --   800.559701486.376492277.03226
           X            1.00000  -0.00129  -0.00003
           Y            0.00129   1.00000   0.00001
           Z            0.00003  -0.00001   1.00000
 This molecule is an asymmetric top.
 Rotational symmetry number  1.
 Warning -- assumption of classical behavior for rotation
           may cause significant error
 Rotational temperatures (Kelvin)      0.10819     0.05827     0.03804
 Rotational constants (GHZ):           2.25435     1.21419     0.79258
 Zero-point vibrational energy     388707.8 (Joules/Mol)
                                   92.90339 (Kcal/Mol)
 Warning -- explicit consideration of  11 degrees of freedom as
           vibrations may cause significant error
 Vibrational temperatures:    129.78   192.87   337.03   395.83   481.40
          (Kelvin)            541.87   619.63   626.65   716.14   729.75
                              822.31   907.64   961.78  1028.01  1097.73
                             1114.47  1183.71  1210.61  1320.51  1458.85
                             1516.29  1547.83  1572.44  1628.29  1636.65
                             1717.57  1736.87  1751.68  1769.83  1920.48
                             1976.04  2094.10  2166.54  2182.76  2244.84
                             2339.15  2402.82  2420.90  2455.56  2551.29
                             3855.61  4631.37  4661.97  4677.04  4691.27
                             4982.27  5074.56  5418.89

 Zero-point correction=                           0.148051 (Hartree/Particle)
 Thermal correction to Energy=                    0.156175
 Thermal correction to Enthalpy=                  0.157119
 Thermal correction to Gibbs Free Energy=         0.115076
 Sum of electronic and zero-point Energies=           -476.215006
 Sum of electronic and thermal Energies=              -476.206882
 Sum of electronic and thermal Enthalpies=            -476.205937
 Sum of electronic and thermal Free Energies=         -476.247980

                     E (Thermal)             CV                S
                      KCal/Mol        Cal/Mol-Kelvin    Cal/Mol-Kelvin
 Total                   98.001             31.887             88.487
 Electronic               0.000              0.000              0.000
 Translational            0.889              2.981             40.679
 Rotational               0.889              2.981             29.384
 Vibrational             96.224             25.926             18.424
 Vibration     1          0.602              1.956              3.656
 Vibration     2          0.613              1.919              2.887
 Vibration     3          0.654              1.788              1.846
 Vibration     4          0.677              1.719              1.564
 Vibration     5          0.716              1.606              1.238
 Vibration     6          0.747              1.520              1.053
 Vibration     7          0.792              1.403              0.856
 Vibration     8          0.796              1.393              0.841
 Vibration     9          0.853              1.255              0.664
 Vibration    10          0.862              1.234              0.640
 Vibration    11          0.928              1.093              0.501

 Optimization completed.
    -- Stationary point found.
 Normal termination of Gaussian 09 at Sat Jun 22 17:17:45 2024.
