 Gaussian 09, Revision E.01,
 Gaussian 09:  ES64L-G09RevE.01 30-Nov-2015

 --------------------------------------
 # opt freq pbepbe/6-31+g(d,p) em=gd3bj
 --------------------------------------

 ----------
 [No Title]
 ----------
 Symbolic Z-matrix:
 Charge =  1 Multiplicity = 1

 SCF Done:  E(RPBE-PBE) =  -476.038037233     A.U. after   15 cycles
 SCF Done:  E(RPBE-PBE) =  -476.038926208     A.U. after   13 cycles
 SCF Done:  E(RPBE-PBE) =  -476.038580127     A.U. after   13 cycles
 SCF Done:  E(RPBE-PBE) =  -476.039016157     A.U. after    9 cycles
 SCF Done:  E(RPBE-PBE) =  -476.039087836     A.U. after   12 cycles
 SCF Done:  E(RPBE-PBE) =  -476.039109262     A.U. after   12 cycles
 SCF Done:  E(RPBE-PBE) =  -476.039115110     A.U. after   10 cycles
 SCF Done:  E(RPBE-PBE) =  -476.039112228     A.U. after   10 cycles
 SCF Done:  E(RPBE-PBE) =  -476.039116002     A.U. after   10 cycles
 Optimization completed.
    -- Stationary point found.
 Normal termination of Gaussian 09 at Sat Jun 22 17:20:43 2024.

 ----------------------------------------------------------------------
 #N Geom=AllCheck Guess=TCheck SCRF=Check GenChk RPBEPBE/6-31+G(d,p) Fr
 eq
 ----------------------------------------------------------------------

 Structure from the checkpoint file:  "gd3pbeAnthranilicyang.chk"
 ----------
 [No Title]
 ----------
 Charge =  1 Multiplicity = 1

                         Standard orientation:
 ---------------------------------------------------------------------
 Center     Atomic      Atomic             Coordinates (Angstroms)
 Number     Number       Type             X           Y           Z
 ---------------------------------------------------------------------
      1          6           0        1.959959   -1.466701    0.000037
      2          6           0        2.635344   -0.236876    0.000065
      3          6           0        1.913905    0.969098    0.000051
      4          6           0        0.522692    0.919315    0.000011
      5          6           0       -0.183060   -0.306416   -0.000036
      6          6           0        0.560881   -1.503860   -0.000012
      7          6           0       -1.666981   -0.312263   -0.000140
      8          8           0       -2.218174   -1.523454    0.000053
      9          7           0       -0.270399    2.171323    0.000029
     10          8           0       -2.356313    0.732089   -0.000111
     11          1           0        2.526307   -2.401152    0.000049
     12          1           0        3.727928   -0.208342    0.000102
     13          1           0        2.439483    1.929126    0.000084
     14          1           0        0.029285   -2.457811   -0.000045
     15          1           0       -3.196945   -1.423560    0.000089
     16          1           0       -0.086387    2.748082   -0.834981
     17          1           0       -1.321092    1.823432    0.000087
     18          1           0       -0.086326    2.748091    0.835019
 ---------------------------------------------------------------------

 SCF Done:  E(RPBE-PBE) =  -476.039116002     A.U. after    1 cycles

 The electronic state is 1-A.
 Alpha  occ. eigenvalues --  -19.00262 -18.95996 -14.28721 -10.21591 -10.14423
 Alpha  occ. eigenvalues --  -10.10729 -10.09109 -10.08498 -10.08375 -10.07569
 Alpha  occ. eigenvalues --   -1.19795  -1.11741  -1.08204  -0.95638  -0.87503
 Alpha  occ. eigenvalues --   -0.85147  -0.77672  -0.74501  -0.71781  -0.69528
 Alpha  occ. eigenvalues --   -0.67890  -0.65467  -0.62828  -0.61070  -0.57913
 Alpha  occ. eigenvalues --   -0.57450  -0.56147  -0.55566  -0.51901  -0.50225
 Alpha  occ. eigenvalues --   -0.49261  -0.48013  -0.45632  -0.42422  -0.40838
 Alpha  occ. eigenvalues --   -0.40571
 Alpha virt. eigenvalues --   -0.25971  -0.21957  -0.18431  -0.16407  -0.14213
 Alpha virt. eigenvalues --   -0.12937  -0.11909  -0.10858  -0.09504  -0.08604
 Alpha virt. eigenvalues --   -0.07963  -0.07795  -0.06896  -0.05778  -0.05172

 Mulliken charges:
               1
     1  C    0.034323
     2  C   -0.428891
     3  C    0.529756
     4  C   -1.211373
     5  C    1.328286
     6  C   -0.924748
     7  C    0.690782
     8  O   -0.375944
     9  N   -0.656165
    10  O   -0.418554
    11  H    0.192632
    12  H    0.193552
    13  H    0.180317
    14  H    0.204780
    15  H    0.410864
    16  H    0.407015
    17  H    0.436354
    18  H    0.407013
 Sum of Mulliken charges =   1.00000

 Dipole moment (field-independent basis, Debye):
    X=              0.9263    Y=              3.9502    Z=              0.0002  Tot=              4.0573
 Quadrupole moment (field-independent basis, Debye-Ang):
   XX=            -35.3354   YY=            -29.3595   ZZ=            -56.6493
   XY=              3.4290   XZ=             -0.0001   YZ=              0.0005

  Exact polarizability: 124.225   0.111 105.793   0.002  -0.000  49.446
 Approx polarizability: 244.521  -2.511 219.375   0.004  -0.001  81.966

                      1                      2                      3
                      A                      A                      A
 Frequencies --     91.2881               126.5253               223.8363
 Red. masses --      6.0458                 3.7495                 3.2671
 Frc consts  --      0.0297                 0.0354                 0.0964
 IR Inten    --      5.8093                 1.1687                19.7285

                      4                      5                      6
                      A                      A                      A
 Frequencies --    268.7770               359.0229               378.4834
 Red. masses --      5.2334                 1.1968                 4.0566
 Frc consts  --      0.2228                 0.0909                 0.3424
 IR Inten    --      7.3234                 0.0004                76.8325

                      7                      8                      9
                      A                      A                      A
 Frequencies --    407.3482               428.0175               473.5881
 Red. masses --      3.0007                 7.7946                 3.1155
 Frc consts  --      0.2934                 0.8413                 0.4117
 IR Inten    --      9.7571                 4.1110                 5.3798

                     10                     11                     12
                      A                      A                      A
 Frequencies --    488.6243               548.8103               613.5312
 Red. masses --      4.6019                 6.2759                 1.3292
 Frc consts  --      0.6474                 1.1137                 0.2948
 IR Inten    --      3.3034                 2.8122                61.5833

                     13                     14                     15
                      A                      A                      A
 Frequencies --    644.3469               683.3384               731.2157
 Red. masses --      5.3550                 2.8747                 1.6048
 Frc consts  --      1.3099                 0.7909                 0.5056
 IR Inten    --     90.7759                43.8647                87.5001

                     16                     17                     18
                      A                      A                      A
 Frequencies --    735.1176               778.1964               809.3683
 Red. masses --      4.0481                 2.5563                 5.3638
 Frc consts  --      1.2889                 0.9121                 2.0702
 IR Inten    --     44.7313                 2.0278                11.8411

                     19                     20                     21
                      A                      A                      A
 Frequencies --    862.9626               950.7910               988.0639
 Red. masses --      1.3630                 1.3678                 1.3438
 Frc consts  --      0.5981                 0.7285                 0.7729
 IR Inten    --      0.0872                 0.5409                 0.0007

                     22                     23                     24
                      A                      A                      A
 Frequencies --   1036.6387              1053.1193              1095.3440
 Red. masses --      2.2975                 2.4882                 1.3055
 Frc consts  --      1.4547                 1.6259                 0.9229
 IR Inten    --      7.1934                16.5875                 7.1303

                     25                     26                     27
                      A                      A                      A
 Frequencies --   1095.8983              1145.8081              1165.0432
 Red. masses --      1.9068                 1.6261                 1.8584
 Frc consts  --      1.3493                 1.2578                 1.4862
 IR Inten    --     89.9787                21.1497               128.6607

                     28                     29                     30
                      A                      A                      A
 Frequencies --   1165.8462              1182.7111              1277.6950
 Red. masses --      1.1503                 1.9907                 1.4534
 Frc consts  --      0.9211                 1.6407                 1.3979
 IR Inten    --     48.5021                31.6993                 9.5079

                     31                     32                     33
                      A                      A                      A
 Frequencies --   1371.0295              1389.0342              1427.9930
 Red. masses --      3.0232                 2.7186                 2.2612
 Frc consts  --      3.3481                 3.0905                 2.7167
 IR Inten    --    145.0789               262.8087               218.4975

                     34                     35                     36
                      A                      A                      A
 Frequencies --   1447.6614              1487.6846              1561.9658
 Red. masses --      2.5817                 2.6146                 1.4984
 Frc consts  --      3.1878                 3.4094                 2.1539
 IR Inten    --      4.4306                96.5547                16.1678

                     37                     38                     39
                      A                      A                      A
 Frequencies --   1590.2902              1613.3074              1623.4827
 Red. masses --      3.0676                 1.0424                 4.5664
 Frc consts  --      4.5709                 1.5985                 7.0912
 IR Inten    --     12.1037                35.0385                73.4988

                     40                     41                     42
                      A                      A                      A
 Frequencies --   1673.7581              2306.4813              3131.9822
 Red. masses --      3.4103                 1.1146                 1.0913
 Frc consts  --      5.6290                 3.4935                 6.3069
 IR Inten    --    165.9578               734.5594                 0.5972

                     43                     44                     45
                      A                      A                      A
 Frequencies --   3151.4675              3161.2608              3169.6637
 Red. masses --      1.0897                 1.0940                 1.0965
 Frc consts  --      6.3768                 6.4416                 6.4907
 IR Inten    --      0.1339                 1.4433                 2.7053

                     46                     47                     48
                      A                      A                      A
 Frequencies --   3365.2315              3433.2864              3618.8691
 Red. masses --      1.0509                 1.0944                 1.0648
 Frc consts  --      7.0122                 7.6003                 8.2160
 IR Inten    --     79.8648                89.4784               192.6594

 - Thermochemistry -
 -------------------
 Temperature   298.150 Kelvin.  Pressure   1.00000 Atm.
 Atom     1 has atomic number  6 and mass  12.00000

 Molecular mass:   138.05550 amu.
 Principal axes and moments of inertia in atomic units:
                           1         2         3
     Eigenvalues --   809.593321508.880052308.43609
           X            1.00000  -0.00229  -0.00002
           Y            0.00229   1.00000   0.00000
           Z            0.00002  -0.00000   1.00000
 This molecule is an asymmetric top.
 Rotational symmetry number  1.
 Warning -- assumption of classical behavior for rotation
           may cause significant error
 Rotational temperatures (Kelvin)      0.10698     0.05740     0.03752
 Rotational constants (GHZ):           2.22919     1.19608     0.78180
 Zero-point vibrational energy     372839.0 (Joules/Mol)
                                   89.11065 (Kcal/Mol)
 Warning -- explicit consideration of  12 degrees of freedom as
           vibrations may cause significant error
 Vibrational temperatures:    131.34   182.04   322.05   386.71   516.55
          (Kelvin)            544.55   586.08   615.82   681.39   703.02
                              789.61   882.73   927.07   983.17  1052.06
                             1057.67  1119.65  1164.50  1241.61  1367.97
                             1421.60  1491.49  1515.20  1575.95  1576.75
                             1648.56  1676.24  1677.39  1701.66  1838.32
                             1972.60  1998.51  2054.56  2082.86  2140.44
                             2247.32  2288.07  2321.19  2335.83  2408.16
                             3318.51  4506.22  4534.25  4548.34  4560.43
                             4841.81  4939.73  5206.74

 Zero-point correction=                           0.142007 (Hartree/Particle)
 Thermal correction to Energy=                    0.150363
 Thermal correction to Enthalpy=                  0.151307
 Thermal correction to Gibbs Free Energy=         0.108881
 Sum of electronic and zero-point Energies=           -475.897109
 Sum of electronic and thermal Energies=              -475.888753
 Sum of electronic and thermal Enthalpies=            -475.887809
 Sum of electronic and thermal Free Energies=         -475.930235

                     E (Thermal)             CV                S
                      KCal/Mol        Cal/Mol-Kelvin    Cal/Mol-Kelvin
 Total                   94.354             33.133             89.294
 Electronic               0.000              0.000              0.000
 Translational            0.889              2.981             40.679
 Rotational               0.889              2.981             29.424
 Vibrational             92.577             27.171             19.191
 Vibration     1          0.602              1.955              3.632
 Vibration     2          0.611              1.927              2.998
 Vibration     3          0.649              1.805              1.928
 Vibration     4          0.673              1.731              1.604
 Vibration     5          0.734              1.557              1.126
 Vibration     6          0.749              1.516              1.045
 Vibration     7          0.772              1.454              0.936
 Vibration     8          0.790              1.409              0.865
 Vibration     9          0.830              1.309              0.728
 Vibration    10          0.845              1.275              0.687
 Vibration    11          0.904              1.142              0.547
 Vibration    12          0.973              1.003              0.427

 Optimization completed.
    -- Stationary point found.
 Normal termination of Gaussian 09 at Sat Jun 22 17:21:53 2024.
