 Gaussian 09, Revision E.01,
 Gaussian 09:  ES64L-G09RevE.01 30-Nov-2015

 --------------------------------------
 # opt freq pbepbe/6-31+g(d,p) em=gd3bj
 --------------------------------------

 ----------
 [No Title]
 ----------
 Symbolic Z-matrix:
 Charge =  0 Multiplicity = 1

 SCF Done:  E(RPBE-PBE) =  -475.686043104     A.U. after   16 cycles
 SCF Done:  E(RPBE-PBE) =  -475.686882367     A.U. after   13 cycles
 SCF Done:  E(RPBE-PBE) =  -475.686889014     A.U. after   12 cycles
 SCF Done:  E(RPBE-PBE) =  -475.686921793     A.U. after   11 cycles
 SCF Done:  E(RPBE-PBE) =  -475.686929243     A.U. after   11 cycles
 SCF Done:  E(RPBE-PBE) =  -475.686935483     A.U. after   10 cycles
 Optimization completed.
    -- Stationary point found.
 Normal termination of Gaussian 09 at Sat Jun 22 17:20:33 2024.

 ----------------------------------------------------------------------
 #N Geom=AllCheck Guess=TCheck SCRF=Check GenChk RPBEPBE/6-31+G(d,p) Fr
 eq
 ----------------------------------------------------------------------

 Structure from the checkpoint file:  "gd3pbeAnthranilic.chk"
 ----------
 [No Title]
 ----------
 Charge =  0 Multiplicity = 1

                         Standard orientation:
 ---------------------------------------------------------------------
 Center     Atomic      Atomic             Coordinates (Angstroms)
 Number     Number       Type             X           Y           Z
 ---------------------------------------------------------------------
      1          6           0       -1.874800   -1.520092    0.000016
      2          6           0       -2.601687   -0.309605    0.000021
      3          6           0       -1.947118    0.917377    0.000014
      4          6           0       -0.527342    0.993342    0.000003
      5          6           0        0.213349   -0.236782    0.000003
      6          6           0       -0.484027   -1.469615    0.000009
      7          6           0        1.678499   -0.208500   -0.000012
      8          8           0        2.261127   -1.448241    0.000035
      9          7           0        0.096809    2.205688    0.000001
     10          8           0        2.388122    0.811311   -0.000075
     11          1           0       -2.394818   -2.481059    0.000017
     12          1           0       -3.696053   -0.329808    0.000027
     13          1           0       -2.522233    1.849357    0.000016
     14          1           0        0.102353   -2.391102    0.000005
     15          1           0        3.225681   -1.273147    0.000001
     16          1           0        1.119102    2.224007   -0.000053
     17          1           0       -0.446939    3.060629   -0.000028
 ---------------------------------------------------------------------

 SCF Done:  E(RPBE-PBE) =  -475.686935483     A.U. after    2 cycles

 The electronic state is 1-A.
 Alpha  occ. eigenvalues --  -18.82971 -18.77696 -14.02923 -10.03276  -9.96655
 Alpha  occ. eigenvalues --   -9.92332  -9.92050  -9.91722  -9.91352  -9.90603
 Alpha  occ. eigenvalues --   -1.01649  -0.92868  -0.85534  -0.77193  -0.70186
 Alpha  occ. eigenvalues --   -0.66835  -0.60066  -0.56507  -0.53742  -0.48540
 Alpha  occ. eigenvalues --   -0.47380  -0.45751  -0.43527  -0.40728  -0.40325
 Alpha  occ. eigenvalues --   -0.39171  -0.38246  -0.35526  -0.34842  -0.32884
 Alpha  occ. eigenvalues --   -0.31249  -0.28885  -0.27882  -0.24021  -0.23805
 Alpha  occ. eigenvalues --   -0.18878
 Alpha virt. eigenvalues --   -0.08204  -0.03289  -0.01633  -0.00633   0.00305
 Alpha virt. eigenvalues --    0.00653   0.01964   0.03367   0.04057   0.04201
 Alpha virt. eigenvalues --    0.05698   0.06299   0.06954   0.07957   0.08590

 Mulliken charges:
               1
     1  C    0.000911
     2  C   -0.535665
     3  C    0.469365
     4  C   -1.143202
     5  C    1.226698
     6  C   -0.849966
     7  C    0.728889
     8  O   -0.431876
     9  N   -0.592963
    10  O   -0.486643
    11  H    0.141427
    12  H    0.142947
    13  H    0.126562
    14  H    0.166066
    15  H    0.375998
    16  H    0.350975
    17  H    0.310477
 Sum of Mulliken charges =   0.00000

 Dipole moment (field-independent basis, Debye):
    X=             -1.1355    Y=              0.7100    Z=             -0.0001  Tot=              1.3393
 Quadrupole moment (field-independent basis, Debye-Ang):
   XX=            -52.6513   YY=            -50.3411   ZZ=            -62.6351
   XY=             -5.0439   XZ=              0.0001   YZ=             -0.0001

  Exact polarizability: 136.467   3.501 120.606  -0.005   0.005  55.225
 Approx polarizability: 264.446  13.802 261.577  -0.002  -0.002  88.879

 ******    1 imaginary frequencies (negative Signs) ******

                      1                      2                      3
                      A                      A                      A
 Frequencies --    -40.7591                91.5523               187.0894
 Red. masses --      3.0256                 5.3960                 1.5900
 Frc consts  --      0.0030                 0.0266                 0.0328
 IR Inten    --     75.1748                 8.4918                78.5653

                      4                      5                      6
                      A                      A                      A
 Frequencies --    228.9013               248.9174               359.8899
 Red. masses --      3.9387                 5.6984                 4.8664
 Frc consts  --      0.1216                 0.2080                 0.3714
 IR Inten    --      9.1159                 0.9402                10.0818

                      7                      8                      9
                      A                      A                      A
 Frequencies --    408.6478               412.5808               495.3637
 Red. masses --      6.0415                 3.0441                 4.2598
 Frc consts  --      0.5944                 0.3053                 0.6159
 IR Inten    --      1.2253                 5.1600                 5.1860

                     10                     11                     12
                      A                      A                      A
 Frequencies --    518.1376               551.6987               567.5964
 Red. masses --      2.9133                 6.8449                 1.1947
 Frc consts  --      0.4608                 1.2275                 0.2268
 IR Inten    --     15.0114                 0.9384                83.1526

                     13                     14                     15
                      A                      A                      A
 Frequencies --    626.3686               640.5454               691.5933
 Red. masses --      5.2205                 1.0400                 3.2002
 Frc consts  --      1.2068                 0.2514                 0.9018
 IR Inten    --     46.4418                29.5162                43.3715

                     16                     17                     18
                      A                      A                      A
 Frequencies --    730.3150               734.5723               772.5431
 Red. masses --      4.2681                 1.4955                 3.2435
 Frc consts  --      1.3412                 0.4755                 1.1406
 IR Inten    --      9.2616                45.6073                 0.6618

                     19                     20                     21
                      A                      A                      A
 Frequencies --    825.2956               843.4892               924.4030
 Red. masses --      1.7763                 5.3719                 1.3552
 Frc consts  --      0.7128                 2.2518                 0.6823
 IR Inten    --      2.0525                 4.8121                 0.6432

                     22                     23                     24
                      A                      A                      A
 Frequencies --    944.6515              1013.5746              1046.1966
 Red. masses --      1.2834                 2.0274                 2.2729
 Frc consts  --      0.6748                 1.2272                 1.4657
 IR Inten    --      0.0017                 2.9390                50.2243

                     25                     26                     27
                      A                      A                      A
 Frequencies --   1060.8802              1140.6007              1153.6687
 Red. masses --      2.8980                 1.3225                 1.1233
 Frc consts  --      1.9217                 1.0137                 0.8809
 IR Inten    --    121.6123                82.3826                53.1446

                     28                     29                     30
                      A                      A                      A
 Frequencies --   1170.3456              1273.4394              1319.4485
 Red. masses --      1.5784                 1.6245                 2.1027
 Frc consts  --      1.2738                 1.5522                 2.1568
 IR Inten    --    167.1511                 2.3387                33.0469

                     31                     32                     33
                      A                      A                      A
 Frequencies --   1342.3696              1392.0178              1448.8556
 Red. masses --      3.1715                 7.3379                 2.6157
 Frc consts  --      3.3671                 8.3775                 3.2351
 IR Inten    --    149.3963                 3.9807                 1.2271

                     34                     35                     36
                      A                      A                      A
 Frequencies --   1477.4874              1544.3919              1577.9901
 Red. masses --      2.2146                 2.4360                 3.1460
 Frc consts  --      2.8483                 3.4233                 4.6155
 IR Inten    --     26.8884               137.9042               165.9143

                     37                     38                     39
                      A                      A                      A
 Frequencies --   1624.5162              1687.3997              3109.7110
 Red. masses --      4.8250                 6.5347                 1.0868
 Frc consts  --      7.5024                10.9626                 6.1919
 IR Inten    --    110.0874               367.9637                10.2107

                     40                     41                     42
                      A                      A                      A
 Frequencies --   3126.7167              3143.1116              3159.4585
 Red. masses --      1.0913                 1.0909                 1.0951
 Frc consts  --      6.2859                 6.3498                 6.4408
 IR Inten    --     14.8329                 7.8483                 6.1715

                     43                     44                     45
                      A                      A                      A
 Frequencies --   3429.1800              3642.7529              3654.0364
 Red. masses --      1.0549                 1.0960                 1.0644
 Frc consts  --      7.3087                 8.5687                 8.3732
 IR Inten    --    117.9786                76.8058                69.1197

 - Thermochemistry -
 -------------------
 Temperature   298.150 Kelvin.  Pressure   1.00000 Atm.
 Atom     1 has atomic number  6 and mass  12.00000

 Molecular mass:   137.04768 amu.
 Principal axes and moments of inertia in atomic units:
                           1         2         3
     Eigenvalues --   791.731421500.927952292.65936
           X            0.99999  -0.00381   0.00001
           Y            0.00381   0.99999   0.00001
           Z           -0.00001  -0.00001   1.00000
 This molecule is an asymmetric top.
 Rotational symmetry number  1.
 Warning -- assumption of classical behavior for rotation
           may cause significant error
 Rotational temperatures (Kelvin)      0.10940     0.05771     0.03778
 Rotational constants (GHZ):           2.27949     1.20242     0.78718
    1 imaginary frequencies ignored.
 Zero-point vibrational energy     337001.8 (Joules/Mol)
                                   80.54536 (Kcal/Mol)
 Warning -- explicit consideration of  11 degrees of freedom as
           vibrations may cause significant error
 Vibrational temperatures:    131.72   269.18   329.34   358.14   517.80
          (Kelvin)            587.95   593.61   712.72   745.48   793.77
                              816.64   901.20   921.60   995.05  1050.76
                             1056.88  1111.52  1187.41  1213.59  1330.01
                             1359.14  1458.31  1505.24  1526.37  1641.07
                             1659.87  1683.86  1832.19  1898.39  1931.37
                             2002.80  2084.58  2125.77  2222.03  2270.37
                             2337.31  2427.79  4474.17  4498.64  4522.23
                             4545.75  4933.82  5241.10  5257.34

 Zero-point correction=                           0.128357 (Hartree/Particle)
 Thermal correction to Energy=                    0.136422
 Thermal correction to Enthalpy=                  0.137366
 Thermal correction to Gibbs Free Energy=         0.095607
 Sum of electronic and zero-point Energies=           -475.558578
 Sum of electronic and thermal Energies=              -475.550513
 Sum of electronic and thermal Enthalpies=            -475.549569
 Sum of electronic and thermal Free Energies=         -475.591328

                     E (Thermal)             CV                S
                      KCal/Mol        Cal/Mol-Kelvin    Cal/Mol-Kelvin
 Total                   85.606             32.229             87.889
 Electronic               0.000              0.000              0.000
 Translational            0.889              2.981             40.657
 Rotational               0.889              2.981             29.389
 Vibrational             83.829             26.267             17.842
 Vibration     1          0.602              1.955              3.627
 Vibration     2          0.632              1.858              2.256
 Vibration     3          0.652              1.797              1.888
 Vibration     4          0.662              1.765              1.738
 Vibration     5          0.734              1.555              1.123
 Vibration     6          0.773              1.451              0.931
 Vibration     7          0.776              1.443              0.918
 Vibration     8          0.851              1.260              0.670
 Vibration     9          0.873              1.210              0.614
 Vibration    10          0.907              1.136              0.541
 Vibration    11          0.924              1.101              0.509

 Optimization completed.
    -- Stationary point found.
 Normal termination of Gaussian 09 at Sat Jun 22 17:21:43 2024.
