 Gaussian 09, Revision E.01,
 Gaussian 09:  ES64L-G09RevE.01 30-Nov-2015

 -----------------------------
 # opt freq 6-311+g(d,p) m062x
 -----------------------------

 ----------
 [No Title]
 ----------
 Symbolic Z-matrix:
 Charge =  1 Multiplicity = 1

 SCF Done:  E(RM062X) =  -512.396311892     A.U. after   15 cycles
 SCF Done:  E(RM062X) =  -512.396476786     A.U. after   12 cycles
 SCF Done:  E(RM062X) =  -512.396477120     A.U. after   11 cycles
 SCF Done:  E(RM062X) =  -512.396483669     A.U. after   11 cycles
 SCF Done:  E(RM062X) =  -512.396491189     A.U. after   11 cycles
 Optimization completed.
    -- Stationary point found.
 Normal termination of Gaussian 09 at Sun Apr 28 15:57:08 2024.

 ----------------------------------------------------------------------
 #N Geom=AllCheck Guess=TCheck SCRF=Check GenChk RM062X/6-311+G(d,p) Fr
 eq
 ----------------------------------------------------------------------

 Structure from the checkpoint file:  "m062x63113HPA.chk"
 ----------
 [No Title]
 ----------
 Charge =  1 Multiplicity = 1

                         Standard orientation:
 ---------------------------------------------------------------------
 Center     Atomic      Atomic             Coordinates (Angstroms)
 Number     Number       Type             X           Y           Z
 ---------------------------------------------------------------------
      1          7           0       -0.511065   -1.348450   -0.000074
      2          6           0       -1.835782   -1.413464   -0.000004
      3          6           0       -2.560236   -0.221125    0.000091
      4          6           0       -1.889208    0.979491    0.000107
      5          6           0       -0.476824    1.019151    0.000030
      6          6           0        0.202162   -0.197127   -0.000065
      7          6           0        1.679263   -0.426796   -0.000157
      8          8           0        2.143631   -1.525359   -0.000049
      9          8           0        2.361436    0.718673    0.000028
     10          8           0        0.091823    2.210094    0.000052
     11          1           0        0.054918   -2.202432   -0.000143
     12          1           0       -2.285643   -2.397011   -0.000026
     13          1           0       -3.641292   -0.257163    0.000150
     14          1           0       -2.418470    1.925915    0.000181
     15          1           0        3.316795    0.543466    0.000125
     16          1           0        1.059781    2.158337   -0.000018
 ---------------------------------------------------------------------

 SCF Done:  E(RM062X) =  -512.396491189     A.U. after    1 cycles

 The electronic state is 1-A.
 Alpha  occ. eigenvalues --  -19.86495 -19.84249 -19.80951 -15.04906 -10.87982
 Alpha  occ. eigenvalues --  -10.83272 -10.81154 -10.80928 -10.76448 -10.76108
 Alpha  occ. eigenvalues --   -1.43823  -1.39197  -1.35067  -1.32532  -1.12608
 Alpha  occ. eigenvalues --   -1.10114  -0.98603  -0.95337  -0.92480  -0.86624
 Alpha  occ. eigenvalues --   -0.83580  -0.79721  -0.77226  -0.76507  -0.75460
 Alpha  occ. eigenvalues --   -0.74636  -0.70824  -0.69042  -0.67528  -0.66914
 Alpha  occ. eigenvalues --   -0.66191  -0.61773  -0.59216  -0.56042  -0.55476
 Alpha  occ. eigenvalues --   -0.50087
 Alpha virt. eigenvalues --   -0.24112  -0.18819  -0.13490  -0.11608  -0.10246
 Alpha virt. eigenvalues --   -0.10135  -0.09360  -0.08686  -0.07926  -0.07300
 Alpha virt. eigenvalues --   -0.05288  -0.04875  -0.04221  -0.03716  -0.02535

 Mulliken charges:
               1
     1  N    0.034937
     2  C   -0.195981
     3  C    0.040018
     4  C   -0.088523
     5  C    0.419877
     6  C   -0.190545
     7  C    0.043842
     8  O   -0.252740
     9  O   -0.322121
    10  O   -0.234992
    11  H    0.369005
    12  H    0.222220
    13  H    0.229605
    14  H    0.227508
    15  H    0.362136
    16  H    0.335753
 Sum of Mulliken charges =   1.00000

 Dipole moment (field-independent basis, Debye):
    X=             -2.5839    Y=             -1.3353    Z=             -0.0001  Tot=              2.9085
 Quadrupole moment (field-independent basis, Debye-Ang):
   XX=            -25.1795   YY=            -44.6668   ZZ=            -56.4734
   XY=              9.6339   XZ=             -0.0005   YZ=              0.0006

  Exact polarizability: 105.023   1.566  91.149  -0.002   0.002  40.934
 Approx polarizability: 126.338   1.420 128.011  -0.002   0.002  53.960

                      1                      2                      3
                      A                      A                      A
 Frequencies --     93.2408               134.8465               234.4181
 Red. masses --     10.3555                 4.5320                 6.4572
 Frc consts  --      0.0530                 0.0486                 0.2091
 IR Inten    --      4.2242                 0.1336                 6.5802

                      4                      5                      6
                      A                      A                      A
 Frequencies --    244.8286               371.2592               409.9683
 Red. masses --      4.7553                 7.9823                 3.3359
 Frc consts  --      0.1679                 0.6482                 0.3303
 IR Inten    --      1.9938                 5.5763                11.4675

                      7                      8                      9
                      A                      A                      A
 Frequencies --    412.0493               537.2209               555.0321
 Red. masses --      6.8724                 2.1145                 5.9649
 Frc consts  --      0.6875                 0.3595                 1.0827
 IR Inten    --     14.0099                60.2194                 2.3651

                     10                     11                     12
                      A                      A                      A
 Frequencies --    562.4998               575.7967               581.4499
 Red. masses --      1.2465                 6.7798                 1.3672
 Frc consts  --      0.2324                 1.3244                 0.2723
 IR Inten    --    146.3370                11.4920                 6.7643

                     13                     14                     15
                      A                      A                      A
 Frequencies --    642.1591               676.6243               763.5369
 Red. masses --      5.1946                 3.3381                 4.3666
 Frc consts  --      1.2621                 0.9004                 1.4999
 IR Inten    --     35.4506                80.2258                20.2397

                     16                     17                     18
                      A                      A                      A
 Frequencies --    785.8100               809.8614               886.3873
 Red. masses --      7.7608                 1.4139                 5.8388
 Frc consts  --      2.8235                 0.5464                 2.7028
 IR Inten    --     47.8124                59.4320                22.6335

                     19                     20                     21
                      A                      A                      A
 Frequencies --    904.2426               989.6376              1024.6948
 Red. masses --      1.2727                 1.3114                 1.2984
 Frc consts  --      0.6131                 0.7567                 0.8033
 IR Inten    --      7.8339                14.6808                 0.3386

                     22                     23                     24
                      A                      A                      A
 Frequencies --   1081.6982              1128.8162              1173.6569
 Red. masses --      2.3934                 2.0955                 1.5046
 Frc consts  --      1.6500                 1.5732                 1.2211
 IR Inten    --     13.1974                16.6618                33.0037

                     25                     26                     27
                      A                      A                      A
 Frequencies --   1196.3932              1260.1616              1280.9818
 Red. masses --      2.1534                 1.3446                 1.4543
 Frc consts  --      1.8160                 1.2580                 1.4060
 IR Inten    --    141.4492                16.0843               272.4944

                     28                     29                     30
                      A                      A                      A
 Frequencies --   1327.8014              1377.2185              1407.2259
 Red. masses --      3.6699                 1.4945                 2.5409
 Frc consts  --      3.8121                 1.6701                 2.9645
 IR Inten    --    132.8775                39.1136                98.5751

                     31                     32                     33
                      A                      A                      A
 Frequencies --   1452.9238              1548.5387              1588.4515
 Red. masses --      3.9649                 3.3233                 2.5270
 Frc consts  --      4.9313                 4.6952                 3.7567
 IR Inten    --     29.2201                91.4232               246.6468

                     34                     35                     36
                      A                      A                      A
 Frequencies --   1667.1602              1712.5254              1906.0899
 Red. masses --      6.6523                 5.3031                11.0853
 Frc consts  --     10.8937                 9.1633                23.7293
 IR Inten    --     38.5577                17.7614               387.8526

                     37                     38                     39
                      A                      A                      A
 Frequencies --   3206.7653              3222.8571              3234.1364
 Red. masses --      1.0938                 1.0956                 1.1002
 Frc consts  --      6.6272                 6.7045                 6.7803
 IR Inten    --     10.3878                14.0627                24.8710

                     40                     41                     42
                      A                      A                      A
 Frequencies --   3471.8830              3767.9387              3780.2554
 Red. masses --      1.0802                 1.0668                 1.0647
 Frc consts  --      7.6715                 8.9232                 8.9640
 IR Inten    --    217.0047               480.9427                97.3074

 - Thermochemistry -
 -------------------
 Temperature   298.150 Kelvin.  Pressure   1.00000 Atm.
 Atom     1 has atomic number  7 and mass  14.00307

 Molecular mass:   140.03477 amu.
 Principal axes and moments of inertia in atomic units:
                           1         2         3
     Eigenvalues --   784.050191436.590142220.64032
           X            0.99952   0.03109   0.00002
           Y           -0.03109   0.99952  -0.00004
           Z           -0.00002   0.00003   1.00000
 This molecule is an asymmetric top.
 Rotational symmetry number  1.
 Warning -- assumption of classical behavior for rotation
           may cause significant error
 Rotational temperatures (Kelvin)      0.11047     0.06029     0.03900
 Rotational constants (GHZ):           2.30182     1.25627     0.81271
 Zero-point vibrational energy     322926.2 (Joules/Mol)
                                   77.18121 (Kcal/Mol)
 Warning -- explicit consideration of  12 degrees of freedom as
           vibrations may cause significant error
 Vibrational temperatures:    134.15   194.01   337.27   352.25   534.16
          (Kelvin)            589.85   592.85   772.94   798.57   809.31
                              828.44   836.58   923.92   973.51  1098.56
                             1130.60  1165.21  1275.31  1301.00  1423.87
                             1474.31  1556.32  1624.11  1688.63  1721.34
                             1813.09  1843.04  1910.41  1981.51  2024.68
                             2090.43  2228.00  2285.42  2398.67  2463.94
                             2742.43  4613.81  4636.97  4653.20  4995.26
                             5421.22  5438.94

 Zero-point correction=                           0.122996 (Hartree/Particle)
 Thermal correction to Energy=                    0.130940
 Thermal correction to Enthalpy=                  0.131884
 Thermal correction to Gibbs Free Energy=         0.090145
 Sum of electronic and zero-point Energies=           -512.273495
 Sum of electronic and thermal Energies=              -512.265552
 Sum of electronic and thermal Enthalpies=            -512.264607
 Sum of electronic and thermal Free Energies=         -512.306346

                     E (Thermal)             CV                S
                      KCal/Mol        Cal/Mol-Kelvin    Cal/Mol-Kelvin
 Total                   82.166             30.935             87.847
 Electronic               0.000              0.000              0.000
 Translational            0.889              2.981             40.722
 Rotational               0.889              2.981             29.305
 Vibrational             80.388             24.974             17.820
 Vibration     1          0.602              1.954              3.591
 Vibration     2          0.613              1.919              2.876
 Vibration     3          0.654              1.788              1.845
 Vibration     4          0.660              1.771              1.768
 Vibration     5          0.743              1.531              1.075
 Vibration     6          0.774              1.449              0.927
 Vibration     7          0.776              1.444              0.919
 Vibration     8          0.892              1.168              0.571
 Vibration     9          0.910              1.129              0.534
 Vibration    10          0.918              1.112              0.519
 Vibration    11          0.932              1.084              0.493
 Vibration    12          0.938              1.071              0.483

 Optimization completed.
    -- Stationary point found.
 Normal termination of Gaussian 09 at Sun Apr 28 15:59:22 2024.
