 Gaussian 09, Revision E.01,
 Gaussian 09:  ES64L-G09RevE.01 30-Nov-2015

 -----------------------------
 # opt freq 6-311+g(d,p) m062x
 -----------------------------

 ----------
 [No Title]
 ----------
 Symbolic Z-matrix:
 Charge =  0 Multiplicity = 1

 SCF Done:  E(RM062X) =  -512.041811014     A.U. after   15 cycles
 SCF Done:  E(RM062X) =  -512.041950546     A.U. after   11 cycles
 SCF Done:  E(RM062X) =  -512.041958894     A.U. after   10 cycles
 SCF Done:  E(RM062X) =  -512.041960347     A.U. after   10 cycles
 SCF Done:  E(RM062X) =  -512.041960898     A.U. after    9 cycles
 SCF Done:  E(RM062X) =  -512.041960918     A.U. after    9 cycles
 Optimization completed.
    -- Stationary point found.
 Normal termination of Gaussian 09 at Sun Apr 28 15:41:31 2024.

 ----------------------------------------------------------------------
 #N Geom=AllCheck Guess=TCheck SCRF=Check GenChk RM062X/6-311+G(d,p) Fr
 eq
 ----------------------------------------------------------------------

 Structure from the checkpoint file:  "m062x63113HPA.chk"
 ----------
 [No Title]
 ----------
 Charge =  0 Multiplicity = 1

                         Standard orientation:
 ---------------------------------------------------------------------
 Center     Atomic      Atomic             Coordinates (Angstroms)
 Number     Number       Type             X           Y           Z
 ---------------------------------------------------------------------
      1          7           0       -0.425740   -1.440706   -0.000231
      2          6           0       -1.743627   -1.486586   -0.000044
      3          6           0       -2.539942   -0.332549    0.000179
      4          6           0       -1.932367    0.903205    0.000181
      5          6           0       -0.534044    0.969965   -0.000039
      6          6           0        0.173518   -0.245865   -0.000243
      7          6           0        1.656870   -0.213448   -0.000471
      8          8           0        2.297040    0.821933    0.000432
      9          8           0        2.241128   -1.404108    0.000099
     10          8           0        0.037609    2.177971   -0.000105
     11          1           0       -2.195842   -2.472463   -0.000047
     12          1           0       -3.619696   -0.418371    0.000344
     13          1           0       -2.494962    1.828758    0.000331
     14          1           0        3.195925   -1.250853    0.000577
     15          1           0        1.006094    2.063178   -0.000374
 ---------------------------------------------------------------------

 SCF Done:  E(RM062X) =  -512.041960918     A.U. after    1 cycles

 The electronic state is 1-A.
 Alpha  occ. eigenvalues --  -19.68915 -19.66388 -19.64294 -14.77066 -10.70478
 Alpha  occ. eigenvalues --  -10.63937 -10.60379 -10.58796 -10.57501 -10.57268
 Alpha  occ. eigenvalues --   -1.26752  -1.21077  -1.16560  -1.07894  -0.92434
 Alpha  occ. eigenvalues --   -0.88981  -0.79099  -0.73689  -0.72514  -0.64551
 Alpha  occ. eigenvalues --   -0.63525  -0.60828  -0.57969  -0.56906  -0.55958
 Alpha  occ. eigenvalues --   -0.51665  -0.50808  -0.49437  -0.48379  -0.47025
 Alpha  occ. eigenvalues --   -0.45970  -0.42034  -0.39272  -0.36006  -0.34116
 Alpha  occ. eigenvalues --   -0.30911
 Alpha virt. eigenvalues --   -0.04246   0.00410   0.00585   0.01301   0.02942
 Alpha virt. eigenvalues --    0.03596   0.04655   0.05156   0.05836   0.06635
 Alpha virt. eigenvalues --    0.07567   0.07956   0.08647   0.09063   0.10331

 Mulliken charges:
               1
     1  N    0.074084
     2  C   -0.330765
     3  C    0.106658
     4  C   -0.270389
     5  C    0.127835
     6  C   -0.012537
     7  C    0.054701
     8  O   -0.380643
     9  O   -0.196692
    10  O   -0.288695
    11  H    0.156883
    12  H    0.172729
    13  H    0.177204
    14  H    0.299978
    15  H    0.309650
 Sum of Mulliken charges =  -0.00000

 Dipole moment (field-independent basis, Debye):
    X=             -1.2225    Y=             -0.4372    Z=             -0.0008  Tot=              1.2983
 Quadrupole moment (field-independent basis, Debye-Ang):
   XX=            -43.5014   YY=            -62.3030   ZZ=            -58.5202
   XY=             -2.0762   XZ=             -0.0025   YZ=             -0.0031

  Exact polarizability: 111.651   3.876  93.736  -0.001   0.003  45.748
 Approx polarizability: 133.266   7.284 128.986  -0.002   0.007  59.833

                      1                      2                      3
                      A                      A                      A
 Frequencies --     83.5833               137.1617               246.1746
 Red. masses --      9.4963                 5.8075                 6.5557
 Frc consts  --      0.0391                 0.0644                 0.2341
 IR Inten    --      0.9725                 2.8225                 2.5138

                      4                      5                      6
                      A                      A                      A
 Frequencies --    255.7082               363.6948               437.9544
 Red. masses --      4.9003                 7.3844                 9.1595
 Frc consts  --      0.1888                 0.5755                 1.0351
 IR Inten    --      1.5929                11.3849                 3.3310

                      7                      8                      9
                      A                      A                      A
 Frequencies --    438.2839               534.4005               553.3097
 Red. masses --      3.8489                 5.6108                 3.8026
 Frc consts  --      0.4356                 0.9441                 0.6859
 IR Inten    --      0.6312                 4.0183                 1.0583

                     10                     11                     12
                      A                      A                      A
 Frequencies --    582.2128               606.5740               662.4289
 Red. masses --      7.5434                 1.2470                 6.3465
 Frc consts  --      1.5065                 0.2703                 1.6408
 IR Inten    --      6.2411                77.6062                64.8697

                     13                     14                     15
                      A                      A                      A
 Frequencies --    695.3719               736.9332               774.3784
 Red. masses --      1.0820                 3.2557                 4.4932
 Frc consts  --      0.3083                 1.0417                 1.5875
 IR Inten    --     98.9171                91.1993                34.1661

                     16                     17                     18
                      A                      A                      A
 Frequencies --    825.7126               837.4450               883.7031
 Red. masses --      5.6294                 1.5969                 6.8385
 Frc consts  --      2.2614                 0.6598                 3.1465
 IR Inten    --     32.4287                10.9145                 9.3249

                     19                     20                     21
                      A                      A                      A
 Frequencies --    953.0018              1015.5303              1080.2438
 Red. masses --      1.3785                 1.3335                 2.3391
 Frc consts  --      0.7376                 0.8102                 1.6082
 IR Inten    --      0.3392                 0.5134                 4.2688

                     22                     23                     24
                      A                      A                      A
 Frequencies --   1124.1308              1156.4024              1209.0355
 Red. masses --      2.5796                 1.4749                 2.2898
 Frc consts  --      1.9206                 1.1621                 1.9721
 IR Inten    --     47.8471                 1.0468               417.3030

                     25                     26                     27
                      A                      A                      A
 Frequencies --   1276.8394              1303.1682              1359.1551
 Red. masses --      1.6390                 2.5822                 3.6713
 Frc consts  --      1.5744                 2.5837                 3.9958
 IR Inten    --      7.3965                34.5160                83.3059

                     28                     29                     30
                      A                      A                      A
 Frequencies --   1365.1318              1464.2163              1503.5006
 Red. masses --      1.4916                 3.1810                 3.5285
 Frc consts  --      1.6377                 4.0182                 4.6994
 IR Inten    --     38.2206               175.3533               219.2096

                     31                     32                     33
                      A                      A                      A
 Frequencies --   1521.7066              1649.8977              1683.0875
 Red. masses --      3.1437                 5.2235                 7.5399
 Frc consts  --      4.2890                 8.3778                12.5843
 IR Inten    --      9.8088                17.6079                 5.0608

                     34                     35                     36
                      A                      A                      A
 Frequencies --   1797.8608              3168.9369              3207.5308
 Red. masses --      8.9101                 1.0912                 1.0908
 Frc consts  --     16.9686                 6.4560                 6.6120
 IR Inten    --    418.5118                 6.8805                 3.6466

                     37                     38                     39
                      A                      A                      A
 Frequencies --   3222.2339              3592.9879              3838.3519
 Red. masses --      1.0982                 1.0670                 1.0646
 Frc consts  --      6.7184                 8.1155                 9.2416
 IR Inten    --      0.6088               324.0895               140.3142

 - Thermochemistry -
 -------------------
 Temperature   298.150 Kelvin.  Pressure   1.00000 Atm.
 Atom     1 has atomic number  7 and mass  14.00307

 Molecular mass:   139.02694 amu.
 Principal axes and moments of inertia in atomic units:
                           1         2         3
     Eigenvalues --   760.812111422.216562183.02861
           X            1.00000   0.00245  -0.00000
           Y           -0.00245   1.00000  -0.00003
           Z            0.00000   0.00003   1.00000
 This molecule is an asymmetric top.
 Rotational symmetry number  1.
 Warning -- assumption of classical behavior for rotation
           may cause significant error
 Rotational temperatures (Kelvin)      0.11384     0.06090     0.03968
 Rotational constants (GHZ):           2.37212     1.26896     0.82671
 Zero-point vibrational energy     287988.9 (Joules/Mol)
                                   68.83099 (Kcal/Mol)
 Warning -- explicit consideration of  11 degrees of freedom as
           vibrations may cause significant error
 Vibrational temperatures:    120.26   197.34   354.19   367.91   523.28
          (Kelvin)            630.12   630.59   768.88   796.09   837.67
                              872.72   953.09  1000.48  1060.28  1114.16
                             1188.01  1204.90  1271.45  1371.16  1461.12
                             1554.23  1617.37  1663.80  1739.53  1837.08
                             1874.97  1955.52  1964.12  2106.68  2163.20
                             2189.39  2373.83  2421.58  2586.72  4559.39
                             4614.92  4636.07  5169.50  5522.53

 Zero-point correction=                           0.109689 (Hartree/Particle)
 Thermal correction to Energy=                    0.117385
 Thermal correction to Enthalpy=                  0.118329
 Thermal correction to Gibbs Free Energy=         0.076950
 Sum of electronic and zero-point Energies=           -511.932272
 Sum of electronic and thermal Energies=              -511.924576
 Sum of electronic and thermal Enthalpies=            -511.923632
 Sum of electronic and thermal Free Energies=         -511.965011

                     E (Thermal)             CV                S
                      KCal/Mol        Cal/Mol-Kelvin    Cal/Mol-Kelvin
 Total                   73.660             29.661             87.090
 Electronic               0.000              0.000              0.000
 Translational            0.889              2.981             40.700
 Rotational               0.889              2.981             29.248
 Vibrational             71.882             23.700             17.142
 Vibration     1          0.600              1.960              3.805
 Vibration     2          0.614              1.916              2.843
 Vibration     3          0.661              1.769              1.758
 Vibration     4          0.666              1.753              1.691
 Vibration     5          0.737              1.547              1.106
 Vibration     6          0.798              1.387              0.833
 Vibration     7          0.798              1.387              0.832
 Vibration     8          0.889              1.174              0.577
 Vibration     9          0.909              1.132              0.537
 Vibration    10          0.939              1.070              0.481
 Vibration    11          0.965              1.018              0.438

 Optimization completed.
    -- Stationary point found.
 Normal termination of Gaussian 09 at Sun Apr 28 15:43:36 2024.
