 Gaussian 09, Revision E.01,
 Gaussian 09:  ES64L-G09RevE.01 30-Nov-2015

 ------------------------
 # opt freq m062x/cc-pvtz
 ------------------------

 ----------
 [No Title]
 ----------
 Symbolic Z-matrix:
 Charge =  0 Multiplicity = 1

 SCF Done:  E(RM062X) =  -492.095020325     A.U. after   15 cycles
 SCF Done:  E(RM062X) =  -492.095545561     A.U. after   11 cycles
 SCF Done:  E(RM062X) =  -492.095533711     A.U. after    9 cycles
 SCF Done:  E(RM062X) =  -492.095528346     A.U. after   10 cycles
 SCF Done:  E(RM062X) =  -492.095556888     A.U. after    9 cycles
 Optimization completed.
    -- Stationary point found.
 Normal termination of Gaussian 09 at Thu Dec 19 21:43:36 2024.

 -------------------------------------------------------------------
 #N Geom=AllCheck Guess=TCheck SCRF=Check GenChk RM062X/CC-pVTZ Freq
 -------------------------------------------------------------------

 Structure from the checkpoint file:  "ccpvTZPNA.chk"
 ----------
 [No Title]
 ----------
 Charge =  0 Multiplicity = 1

                         Standard orientation:
 ---------------------------------------------------------------------
 Center     Atomic      Atomic             Coordinates (Angstroms)
 Number     Number       Type             X           Y           Z
 ---------------------------------------------------------------------
      1          6           0        0.021925   -1.208204   -0.000039
      2          6           0        0.701381    0.000000   -0.000012
      3          6           0        0.021925    1.208204    0.000032
      4          6           0       -1.355325    1.208335    0.000052
      5          6           0       -2.069076    0.000000    0.000027
      6          6           0       -1.355325   -1.208335   -0.000020
      7          7           0       -3.431698    0.000000    0.000054
      8          7           0        2.161061    0.000000   -0.000033
      9          8           0        2.726300    1.074005   -0.000002
     10          8           0        2.726300   -1.074005   -0.000057
     11          1           0        0.582847   -2.130414   -0.000074
     12          1           0        0.582847    2.130414    0.000051
     13          1           0       -1.896335    2.145254    0.000088
     14          1           0       -1.896335   -2.145254   -0.000040
     15          1           0       -3.946203   -0.859544    0.000004
     16          1           0       -3.946203    0.859544    0.000059
 ---------------------------------------------------------------------

 SCF Done:  E(RM062X) =  -492.095556888     A.U. after    1 cycles

 The electronic state is 1-A.
 Alpha  occ. eigenvalues --  -19.64604 -19.64601 -14.98794 -14.78109 -10.61750
 Alpha  occ. eigenvalues --  -10.59064 -10.56886 -10.56883 -10.55950 -10.55949
 Alpha  occ. eigenvalues --   -1.35948  -1.17139  -1.06435  -0.98530  -0.89098
 Alpha  occ. eigenvalues --   -0.87271  -0.78365  -0.72987  -0.68557  -0.64808
 Alpha  occ. eigenvalues --   -0.62686  -0.61849  -0.61688  -0.58984  -0.53593
 Alpha  occ. eigenvalues --   -0.52505  -0.51384  -0.49043  -0.48573  -0.42705
 Alpha  occ. eigenvalues --   -0.41078  -0.38081  -0.37191  -0.37021  -0.33470
 Alpha  occ. eigenvalues --   -0.28245
 Alpha virt. eigenvalues --   -0.03554   0.00420   0.04418   0.05955   0.07444
 Alpha virt. eigenvalues --    0.08075   0.11909   0.13078   0.16014   0.19379
 Alpha virt. eigenvalues --    0.19679   0.20402   0.23732   0.26827   0.27200

 Mulliken charges:
               1
     1  C   -0.103468
     2  C    0.009884
     3  C   -0.103468
     4  C   -0.171925
     5  C    0.311225
     6  C   -0.171925
     7  N   -0.442165
     8  N    0.349984
     9  O   -0.297568
    10  O   -0.297567
    11  H    0.150473
    12  H    0.150473
    13  H    0.099503
    14  H    0.099503
    15  H    0.208521
    16  H    0.208521
 Sum of Mulliken charges =  -0.00000

 Dipole moment (field-independent basis, Debye):
    X=             -7.3036    Y=             -0.0000    Z=             -0.0000  Tot=              7.3036
 Quadrupole moment (field-independent basis, Debye-Ang):
   XX=            -54.9963   YY=            -52.5744   ZZ=            -60.0525
   XY=             -0.0000   XZ=              0.0002   YZ=              0.0002

  Exact polarizability: 137.881  -0.000  95.148  -0.001   0.001  43.556
 Approx polarizability: 166.202  -0.000 139.419  -0.001   0.002  61.410

 ******    1 imaginary frequencies (negative Signs) ******

                      1                      2                      3
                      A                      A                      A
 Frequencies --   -341.2990                74.9873               112.4296
 Red. masses --      1.2337                 7.7758                 5.8566
 Frc consts  --      0.0847                 0.0258                 0.0436
 IR Inten    --    197.1383                 0.0000                 0.0002

                      4                      5                      6
                      A                      A                      A
 Frequencies --    234.0782               294.2363               371.1020
 Red. masses --      6.3204                 5.6058                 9.4506
 Frc consts  --      0.2040                 0.2859                 0.7668
 IR Inten    --      0.2206                 3.0036                 0.0853

                      7                      8                      9
                      A                      A                      A
 Frequencies --    395.6285               407.1574               432.5087
 Red. masses --      3.0397                 1.0186                 3.0432
 Frc consts  --      0.2803                 0.0995                 0.3354
 IR Inten    --      1.1027                 0.0000                 0.0000

                     10                     11                     12
                      A                      A                      A
 Frequencies --    509.1648               545.6024               648.4970
 Red. masses --      2.6206                 7.0550                 6.8398
 Frc consts  --      0.4003                 1.2374                 1.6948
 IR Inten    --     19.4266                 3.4755                 0.9378

                     13                     14                     15
                      A                      A                      A
 Frequencies --    653.4352               718.2645               797.1792
 Red. masses --      6.8117                 3.0637                 5.9329
 Frc consts  --      1.7136                 0.9312                 2.2214
 IR Inten    --     17.6378                12.3672                32.6994

                     16                     17                     18
                      A                      A                      A
 Frequencies --    841.4136               844.2321               874.2104
 Red. masses --      1.2577                 5.5689                 2.0404
 Frc consts  --      0.5246                 2.3385                 0.9187
 IR Inten    --      0.0000                 0.8951                33.5089

                     19                     20                     21
                      A                      A                      A
 Frequencies --    904.3439              1005.3521              1009.2501
 Red. masses --      9.4480                 1.3499                 1.3300
 Frc consts  --      4.5526                 0.8039                 0.7982
 IR Inten    --     36.6326                 1.9477                 0.0000

                     22                     23                     24
                      A                      A                      A
 Frequencies --   1029.7616              1041.8337              1148.6989
 Red. masses --      2.7321                 1.3916                 1.1631
 Frc consts  --      1.7069                 0.8899                 0.9042
 IR Inten    --      3.5944                 0.0814                14.6037

                     25                     26                     27
                      A                      A                      A
 Frequencies --   1152.6747              1216.4060              1334.4522
 Red. masses --      1.9976                 1.4818                 1.3032
 Frc consts  --      1.5638                 1.2918                 1.3673
 IR Inten    --    130.1974                 7.9958                 0.1528

                     28                     29                     30
                      A                      A                      A
 Frequencies --   1356.9968              1376.3978              1456.0150
 Red. masses --      3.0564                 8.0748                12.3897
 Frc consts  --      3.3160                 9.0131                15.4754
 IR Inten    --    158.2232                 0.0188               570.0968

                     31                     32                     33
                      A                      A                      A
 Frequencies --   1499.0828              1557.8498              1647.4729
 Red. masses --      3.6198                 2.6678                 1.2835
 Frc consts  --      4.7928                 3.8147                 2.0526
 IR Inten    --      0.5386                49.7578                90.4728

                     34                     35                     36
                      A                      A                      A
 Frequencies --   1649.4532              1685.7695              1710.2368
 Red. masses --      8.9490                 5.6787                11.1473
 Frc consts  --     14.3451                 9.5081                19.2103
 IR Inten    --     70.3213               308.8370               260.6105

                     37                     38                     39
                      A                      A                      A
 Frequencies --   3191.0493              3191.4158              3237.8233
 Red. masses --      1.0910                 1.0908                 1.0940
 Frc consts  --      6.5457                 6.5456                 6.7574
 IR Inten    --      4.8664                 7.8854                 4.8289

                     40                     41                     42
                      A                      A                      A
 Frequencies --   3237.8317              3657.1752              3785.5480
 Red. masses --      1.0934                 1.0448                 1.1058
 Frc consts  --      6.7536                 8.2334                 9.3361
 IR Inten    --      2.0046               129.2505                48.6813

 - Thermochemistry -
 -------------------
 Temperature   298.150 Kelvin.  Pressure   1.00000 Atm.
 Atom     1 has atomic number  6 and mass  12.00000

 Molecular mass:   138.04293 amu.
 Principal axes and moments of inertia in atomic units:
                           1         2         3
     Eigenvalues --   453.131042171.161422624.29246
           X            1.00000   0.00000   0.00001
           Y            0.00000   1.00000  -0.00003
           Z           -0.00001   0.00003   1.00000
 This molecule is an asymmetric top.
 Rotational symmetry number  1.
 Warning -- assumption of classical behavior for rotation
           may cause significant error
 Rotational temperatures (Kelvin)      0.19115     0.03989     0.03300
 Rotational constants (GHZ):           3.98282     0.83123     0.68771
    1 imaginary frequencies ignored.
 Zero-point vibrational energy     316035.5 (Joules/Mol)
                                   75.53431 (Kcal/Mol)
 Warning -- explicit consideration of  10 degrees of freedom as
           vibrations may cause significant error
 Vibrational temperatures:    107.89   161.76   336.79   423.34   533.93
          (Kelvin)            569.22   585.81   622.28   732.57   785.00
                              933.04   940.15  1033.42  1146.96  1210.60
                             1214.66  1257.79  1301.15  1446.48  1452.08
                             1481.60  1498.96  1652.72  1658.44  1750.13
                             1919.98  1952.41  1980.33  2094.88  2156.84
                             2241.40  2370.34  2373.19  2425.44  2460.65
                             4591.20  4591.73  4658.50  4658.51  5261.85
                             5446.55

 Zero-point correction=                           0.120372 (Hartree/Particle)
 Thermal correction to Energy=                    0.128222
 Thermal correction to Enthalpy=                  0.129166
 Thermal correction to Gibbs Free Energy=         0.087321
 Sum of electronic and zero-point Energies=           -491.975185
 Sum of electronic and thermal Energies=              -491.967335
 Sum of electronic and thermal Enthalpies=            -491.966391
 Sum of electronic and thermal Free Energies=         -492.008236

                     E (Thermal)             CV                S
                      KCal/Mol        Cal/Mol-Kelvin    Cal/Mol-Kelvin
 Total                   80.460             29.928             88.070
 Electronic               0.000              0.000              0.000
 Translational            0.889              2.981             40.679
 Rotational               0.889              2.981             29.336
 Vibrational             78.683             23.966             18.055
 Vibration     1          0.599              1.966              4.018
 Vibration     2          0.607              1.939              3.227
 Vibration     3          0.654              1.789              1.847
 Vibration     4          0.689              1.684              1.449
 Vibration     5          0.743              1.532              1.075
 Vibration     6          0.762              1.480              0.979
 Vibration     7          0.772              1.455              0.937
 Vibration     8          0.793              1.399              0.850
 Vibration     9          0.864              1.230              0.636
 Vibration    10          0.901              1.149              0.553

 Optimization completed.
    -- Stationary point found.
 Normal termination of Gaussian 09 at Thu Dec 19 21:53:27 2024.
