 Gaussian 09, Revision E.01,
 Gaussian 09:  ES64L-G09RevE.01 30-Nov-2015

 ------------------------
 # opt freq m062x/cc-pvtz
 ------------------------

 ----------
 [No Title]
 ----------
 Symbolic Z-matrix:
 Charge =  1 Multiplicity = 1

 SCF Done:  E(RM062X) =  -492.438191961     A.U. after   16 cycles
 SCF Done:  E(RM062X) =  -492.438685680     A.U. after   11 cycles
 SCF Done:  E(RM062X) =  -492.438695202     A.U. after    9 cycles
 SCF Done:  E(RM062X) =  -492.438695804     A.U. after    7 cycles
 SCF Done:  E(RM062X) =  -492.438695792     A.U. after    8 cycles
 Optimization completed.
    -- Stationary point found.
 Normal termination of Gaussian 09 at Thu Dec 19 22:06:49 2024.

 -------------------------------------------------------------------
 #N Geom=AllCheck Guess=TCheck SCRF=Check GenChk RM062X/CC-pVTZ Freq
 -------------------------------------------------------------------

 Structure from the checkpoint file:  "ccpvTZPNAyang.chk"
 ----------
 [No Title]
 ----------
 Charge =  1 Multiplicity = 1

                         Standard orientation:
 ---------------------------------------------------------------------
 Center     Atomic      Atomic             Coordinates (Angstroms)
 Number     Number       Type             X           Y           Z
 ---------------------------------------------------------------------
      1          6           0       -0.059717    1.257735   -0.000115
      2          6           0        0.660087    0.037061   -0.000299
      3          6           0       -0.006826   -1.212432   -0.000199
      4          6           0       -1.362423   -1.235440   -0.000043
      5          6           0       -2.105277   -0.018592    0.000079
      6          6           0       -1.413776    1.228869    0.000042
      7          7           0       -3.430120   -0.045218    0.000227
      8          7           0        2.020937    0.106952   -0.000477
      9          8           0        2.655465   -1.080270    0.000321
     10          8           0        2.685847    1.099436    0.000175
     11          1           0        0.481558    2.193109   -0.000156
     12          1           0        0.559265   -2.131346   -0.000296
     13          1           0       -1.892675   -2.177521   -0.000016
     14          1           0       -1.981752    2.148755    0.000132
     15          1           0       -3.971077    0.804885    0.000315
     16          1           0       -3.937221   -0.915810    0.000255
     17          1           0        3.603271   -0.850745    0.000762
 ---------------------------------------------------------------------

 SCF Done:  E(RM062X) =  -492.438695792     A.U. after    1 cycles

 The electronic state is 1-A.
 Alpha  occ. eigenvalues --  -19.89357 -19.86188 -15.18584 -14.95788 -10.79653
 Alpha  occ. eigenvalues --  -10.77399 -10.74208 -10.74018 -10.72249 -10.72245
 Alpha  occ. eigenvalues --   -1.56144  -1.38604  -1.24169  -1.18313  -1.09945
 Alpha  occ. eigenvalues --   -1.04330  -0.97661  -0.91176  -0.88538  -0.83639
 Alpha  occ. eigenvalues --   -0.82671  -0.81529  -0.79265  -0.78129  -0.73062
 Alpha  occ. eigenvalues --   -0.68911  -0.68558  -0.67687  -0.65686  -0.65360
 Alpha  occ. eigenvalues --   -0.61749  -0.58879  -0.57906  -0.57729  -0.50367
 Alpha  occ. eigenvalues --   -0.44937
 Alpha virt. eigenvalues --   -0.25168  -0.14910  -0.11408  -0.08314  -0.07815
 Alpha virt. eigenvalues --   -0.05413  -0.05019  -0.01258  -0.00408   0.01360
 Alpha virt. eigenvalues --    0.02786   0.02896   0.04531   0.06050   0.09156

 Mulliken charges:
               1
     1  C   -0.063237
     2  C    0.073707
     3  C   -0.059968
     4  C   -0.116775
     5  C    0.327854
     6  C   -0.131659
     7  N   -0.332433
     8  N    0.325464
     9  O   -0.203602
    10  O   -0.209966
    11  H    0.169188
    12  H    0.166212
    13  H    0.136362
    14  H    0.139103
    15  H    0.236946
    16  H    0.236993
    17  H    0.305811
 Sum of Mulliken charges =   1.00000

 Dipole moment (field-independent basis, Debye):
    X=             -3.2045    Y=             -1.0827    Z=              0.0005  Tot=              3.3825
 Quadrupole moment (field-independent basis, Debye-Ang):
   XX=             -7.9167   YY=            -44.4310   ZZ=            -58.2767
   XY=             -4.5919   XZ=             -0.0001   YZ=             -0.0006

  Exact polarizability: 189.507   5.866  85.999  -0.002   0.001  41.884
 Approx polarizability: 263.517  17.679 118.174  -0.007   0.002  58.873

                      1                      2                      3
                      A                      A                      A
 Frequencies --     97.4189               109.5686               229.1812
 Red. masses --      4.9933                 7.0922                 5.6841
 Frc consts  --      0.0279                 0.0502                 0.1759
 IR Inten    --      3.7073                 0.0903                 1.0998

                      4                      5                      6
                      A                      A                      A
 Frequencies --    260.6534               374.3484               403.3499
 Red. masses --      4.4996                 8.2467                 3.0187
 Frc consts  --      0.1801                 0.6809                 0.2894
 IR Inten    --      0.0007                 3.5512                 0.2353

                      7                      8                      9
                      A                      A                      A
 Frequencies --    404.1969               458.8434               494.0341
 Red. masses --      2.4473                 1.2717                 1.6979
 Frc consts  --      0.2356                 0.1577                 0.2442
 IR Inten    --     10.9564               169.8622                10.3255

                     10                     11                     12
                      A                      A                      A
 Frequencies --    530.6140               544.0724               576.8715
 Red. masses --      1.4376                 6.0597                 1.0627
 Frc consts  --      0.2385                 1.0568                 0.2084
 IR Inten    --    142.1615                 9.7506                 0.0358

                     13                     14                     15
                      A                      A                      A
 Frequencies --    632.6261               635.8985               716.3627
 Red. masses --      6.8281                 6.0902                 3.9913
 Frc consts  --      1.6101                 1.4510                 1.2068
 IR Inten    --      3.8152                46.0704                16.3375

                     16                     17                     18
                      A                      A                      A
 Frequencies --    768.6779               773.6531               836.4845
 Red. masses --      4.8835                 6.9582                 1.2822
 Frc consts  --      1.7001                 2.4538                 0.5286
 IR Inten    --      4.2281                 8.3622                 1.0773

                     19                     20                     21
                      A                      A                      A
 Frequencies --    851.0017               881.7534              1004.9450
 Red. masses --      5.7091                 1.8563                 2.9070
 Frc consts  --      2.4360                 0.8503                 1.7297
 IR Inten    --     42.0148                61.5923                 2.2021

                     22                     23                     24
                      A                      A                      A
 Frequencies --   1024.1192              1029.7993              1046.7186
 Red. masses --      1.3131                 1.3178                 1.4709
 Frc consts  --      0.8114                 0.8234                 0.9495
 IR Inten    --      0.3455                 0.0855                 5.7781

                     25                     26                     27
                      A                      A                      A
 Frequencies --   1102.4107              1182.5641              1197.3874
 Red. masses --      5.0531                 1.1854                 1.2944
 Frc consts  --      3.6183                 0.9767                 1.0935
 IR Inten    --    202.0230                64.3046               771.6589

                     28                     29                     30
                      A                      A                      A
 Frequencies --   1283.3160              1353.7330              1412.2862
 Red. masses --      1.7392                 1.3449                 2.2410
 Frc consts  --      1.6876                 1.4521                 2.6335
 IR Inten    --    563.7476                32.0809               167.9841

                     31                     32                     33
                      A                      A                      A
 Frequencies --   1424.5342              1459.9953              1559.1530
 Red. masses --      3.4255                 2.9590                 4.7354
 Frc consts  --      4.0956                 3.7162                 6.7824
 IR Inten    --      1.6862                31.3381               123.7885

                     34                     35                     36
                      A                      A                      A
 Frequencies --   1568.2509              1592.3625              1658.2918
 Red. masses --      2.4459                 5.7334                 4.7091
 Frc consts  --      3.5442                 8.5653                 7.6298
 IR Inten    --     16.8497                23.6126              1221.3735

                     37                     38                     39
                      A                      A                      A
 Frequencies --   1683.6351              1746.1504              3205.2000
 Red. masses --      1.5283                 5.3410                 1.0928
 Frc consts  --      2.5524                 9.5948                 6.6147
 IR Inten    --    414.1838                88.2172                 1.1379

                     40                     41                     42
                      A                      A                      A
 Frequencies --   3214.5623              3228.4082              3247.6402
 Red. masses --      1.0903                 1.0979                 1.0953
 Frc consts  --      6.6378                 6.7422                 6.8066
 IR Inten    --      1.1567                13.1222                11.0192

                     43                     44                     45
                      A                      A                      A
 Frequencies --   3585.7743              3707.4392              3719.9515
 Red. masses --      1.0465                 1.1063                 1.0661
 Frc consts  --      7.9281                 8.9592                 8.6925
 IR Inten    --    420.4337                94.5871               427.8843

 - Thermochemistry -
 -------------------
 Temperature   298.150 Kelvin.  Pressure   1.00000 Atm.
 Atom     1 has atomic number  6 and mass  12.00000

 Molecular mass:   139.05075 amu.
 Principal axes and moments of inertia in atomic units:
                           1         2         3
     Eigenvalues --   472.562052168.403672640.96566
           X            0.99998  -0.00602   0.00001
           Y            0.00602   0.99998   0.00001
           Z           -0.00001  -0.00001   1.00000
 This molecule is an asymmetric top.
 Rotational symmetry number  1.
 Warning -- assumption of classical behavior for rotation
           may cause significant error
 Rotational temperatures (Kelvin)      0.18329     0.03994     0.03280
 Rotational constants (GHZ):           3.81906     0.83229     0.68336
 Zero-point vibrational energy     351811.2 (Joules/Mol)
                                   84.08489 (Kcal/Mol)
 Warning -- explicit consideration of  12 degrees of freedom as
           vibrations may cause significant error
 Vibrational temperatures:    140.16   157.64   329.74   375.02   538.60
          (Kelvin)            580.33   581.55   660.17   710.80   763.43
                              782.80   829.99   910.21   914.91  1030.68
                             1105.95  1113.11  1203.51  1224.40  1268.64
                             1445.89  1473.48  1481.65  1505.99  1586.12
                             1701.44  1722.77  1846.40  1947.72  2031.96
                             2049.58  2100.60  2243.27  2256.36  2291.05
                             2385.91  2422.37  2512.32  4611.56  4625.03
                             4644.95  4672.62  5159.12  5334.17  5352.17

 Zero-point correction=                           0.133998 (Hartree/Particle)
 Thermal correction to Energy=                    0.142282
 Thermal correction to Enthalpy=                  0.143226
 Thermal correction to Gibbs Free Energy=         0.100888
 Sum of electronic and zero-point Energies=           -492.304698
 Sum of electronic and thermal Energies=              -492.296414
 Sum of electronic and thermal Enthalpies=            -492.295470
 Sum of electronic and thermal Free Energies=         -492.337808

                     E (Thermal)             CV                S
                      KCal/Mol        Cal/Mol-Kelvin    Cal/Mol-Kelvin
 Total                   89.283             32.621             89.108
 Electronic               0.000              0.000              0.000
 Translational            0.889              2.981             40.701
 Rotational               0.889              2.981             29.383
 Vibrational             87.506             26.659             19.025
 Vibration     1          0.603              1.951              3.505
 Vibration     2          0.606              1.942              3.277
 Vibration     3          0.652              1.796              1.885
 Vibration     4          0.669              1.745              1.657
 Vibration     5          0.745              1.525              1.062
 Vibration     6          0.769              1.463              0.950
 Vibration     7          0.769              1.461              0.947
 Vibration     8          0.817              1.341              0.769
 Vibration     9          0.850              1.263              0.673
 Vibration    10          0.886              1.182              0.586
 Vibration    11          0.899              1.153              0.557
 Vibration    12          0.933              1.081              0.491

 Optimization completed.
    -- Stationary point found.
 Normal termination of Gaussian 09 at Thu Dec 19 22:18:02 2024.
