 Gaussian 09, Revision E.01,
 Gaussian 09:  ES64L-G09RevE.01 30-Nov-2015

 -----------------------------------------------------
 # opt freq B2PLYP/6-31+g(d,p) EmpiricalDispersion=GD3
 -----------------------------------------------------

 ----------
 [No Title]
 ----------
 Symbolic Z-matrix:
 Charge =  1 Multiplicity = 1

 SCF Done:  E(RB2PLYP) =  -491.516276569     A.U. after   16 cycles
 E2(B2PLYP) =    -0.5066343682D+00 E(B2PLYP) =    -0.49202291093761D+03
 SCF Done:  E(RB2PLYP) =  -491.515037679     A.U. after   12 cycles
 E2(B2PLYP) =    -0.5083174263D+00 E(B2PLYP) =    -0.49202335510570D+03
 SCF Done:  E(RB2PLYP) =  -491.514725706     A.U. after   12 cycles
 E2(B2PLYP) =    -0.5086608598D+00 E(B2PLYP) =    -0.49202338656565D+03
 SCF Done:  E(RB2PLYP) =  -491.514689777     A.U. after   11 cycles
 E2(B2PLYP) =    -0.5086992967D+00 E(B2PLYP) =    -0.49202338907413D+03
 SCF Done:  E(RB2PLYP) =  -491.514696802     A.U. after   10 cycles
 E2(B2PLYP) =    -0.5086929628D+00 E(B2PLYP) =    -0.49202338976530D+03
 SCF Done:  E(RB2PLYP) =  -491.514709293     A.U. after   10 cycles
 E2(B2PLYP) =    -0.5086806934D+00 E(B2PLYP) =    -0.49202338998672D+03
 Optimization completed.
    -- Stationary point found.
 Normal termination of Gaussian 09 at Thu Dec 19 00:02:24 2024.

 ----------------------------------------------------------------------
 #N Geom=AllCheck Guess=TCheck SCRF=Check GenChk RB2PLYP(FC)/6-31+G(d,p
 ) Freq
 ----------------------------------------------------------------------

 Structure from the checkpoint file:  "B2PLYPD3PNAyang.chk"
 ----------
 [No Title]
 ----------
 Charge =  1 Multiplicity = 1

                         Standard orientation:
 ---------------------------------------------------------------------
 Center     Atomic      Atomic             Coordinates (Angstroms)
 Number     Number       Type             X           Y           Z
 ---------------------------------------------------------------------
      1          6           0       -0.059009    1.264649    0.000048
      2          6           0        0.665322    0.037723    0.000132
      3          6           0       -0.006157   -1.218220    0.000086
      4          6           0       -1.374402   -1.239298    0.000024
      5          6           0       -2.120935   -0.018169   -0.000022
      6          6           0       -1.425466    1.233939   -0.000013
      7          7           0       -3.456929   -0.045240   -0.000075
      8          7           0        2.031532    0.110072    0.000197
      9          8           0        2.673432   -1.109386   -0.000149
     10          8           0        2.714115    1.125918   -0.000099
     11          1           0        0.480111    2.203115    0.000063
     12          1           0        0.557282   -2.140598    0.000121
     13          1           0       -1.900669   -2.186240    0.000016
     14          1           0       -1.989534    2.158904   -0.000043
     15          1           0       -4.002320    0.804978   -0.000108
     16          1           0       -3.967820   -0.916602   -0.000083
     17          1           0        3.624231   -0.873373   -0.000370
 ---------------------------------------------------------------------

 SCF Done:  E(RB2PLYP) =  -491.514709293     A.U. after    1 cycles
 E2(B2PLYP) =    -0.5086806923D+00 E(B2PLYP) =    -0.49202338998562D+03
 E2(B2PLYP) =    -0.5086806923D+00 E(B2PLYP) =    -0.49202338998562D+03

 The electronic state is 1-A.
 Alpha  occ. eigenvalues --  -20.01971 -19.98414 -15.29449 -15.07115 -10.89526
 Alpha  occ. eigenvalues --  -10.87040 -10.83901 -10.83665 -10.81689 -10.81653
 Alpha  occ. eigenvalues --   -1.56208  -1.39423  -1.26291  -1.20218  -1.11700
 Alpha  occ. eigenvalues --   -1.06265  -0.99118  -0.91814  -0.89212  -0.83915
 Alpha  occ. eigenvalues --   -0.82435  -0.80008  -0.79233  -0.78497  -0.72951
 Alpha  occ. eigenvalues --   -0.69711  -0.69308  -0.68414  -0.66332  -0.64451
 Alpha  occ. eigenvalues --   -0.60842  -0.59840  -0.57278  -0.56478  -0.48832
 Alpha  occ. eigenvalues --   -0.43989
 Alpha virt. eigenvalues --   -0.24521  -0.13161  -0.10242  -0.10209  -0.09025
 Alpha virt. eigenvalues --   -0.07588  -0.06466  -0.05681  -0.04509  -0.04006
 Alpha virt. eigenvalues --   -0.02612  -0.01556  -0.01141  -0.00993   0.00086

 Mulliken charges:
               1
     1  C    0.061029
     2  C   -0.532651
     3  C    0.259436
     4  C    0.033487
     5  C    0.029330
     6  C    0.085576
     7  N   -0.572038
     8  N   -0.202697
     9  O   -0.087075
    10  O   -0.011012
    11  H    0.221431
    12  H    0.219713
    13  H    0.186525
    14  H    0.188079
    15  H    0.355919
    16  H    0.355573
    17  H    0.409376
 Sum of Mulliken charges =   1.00000

 Dipole moment (field-independent basis, Debye):
    X=             -3.6428    Y=             -1.1570    Z=             -0.0002  Tot=              3.8221
 Quadrupole moment (field-independent basis, Debye-Ang):
   XX=             -9.4595   YY=            -44.8310   ZZ=            -59.1484
   XY=             -4.9393   XZ=             -0.0005   YZ=              0.0003

  Exact polarizability: 202.882   5.704  88.414  -0.000  -0.000  45.145
 Approx polarizability: 267.653  21.032 111.778   0.002  -0.001  57.194

                      1                      2                      3
                      A                      A                      A
 Frequencies --     90.5073                96.1303               225.1225
 Red. masses --      5.3776                 6.5687                 5.7668
 Frc consts  --      0.0260                 0.0358                 0.1722
 IR Inten    --      1.4278                 1.6271                 1.1699

                      4                      5                      6
                      A                      A                      A
 Frequencies --    247.7510               370.3253               375.5939
 Red. masses --      4.7660                 8.2802                 2.1258
 Frc consts  --      0.1724                 0.6690                 0.1767
 IR Inten    --      0.0880                 0.7991                36.6785

                      7                      8                      9
                      A                      A                      A
 Frequencies --    402.4376               424.7331               459.3390
 Red. masses --      3.1678                 1.3978                 2.3286
 Frc consts  --      0.3023                 0.1486                 0.2895
 IR Inten    --      0.1640               123.9534                 0.0143

                     10                     11                     12
                      A                      A                      A
 Frequencies --    487.6612               531.1521               551.8823
 Red. masses --      1.2814                 5.8622                 1.0537
 Frc consts  --      0.1795                 0.9744                 0.1891
 IR Inten    --    215.0133                11.9449                 0.0325

                     13                     14                     15
                      A                      A                      A
 Frequencies --    603.7532               612.1286               631.0415
 Red. masses --      6.0084                 5.0111                 6.8545
 Frc consts  --      1.2904                 1.1063                 1.6082
 IR Inten    --     22.9135                 7.7370                 4.9766

                     16                     17                     18
                      A                      A                      A
 Frequencies --    646.6025               729.5409               803.5932
 Red. masses --     11.7264                 5.6187                 1.2779
 Frc consts  --      2.8886                 1.7619                 0.4862
 IR Inten    --      6.8601                24.3494                 1.2301

                     19                     20                     21
                      A                      A                      A
 Frequencies --    826.0117               841.2922               956.0313
 Red. masses --      1.5837                 5.6336                 1.1782
 Frc consts  --      0.6367                 2.3493                 0.6345
 IR Inten    --     65.5533                26.7424                 1.2412

                     22                     23                     24
                      A                      A                      A
 Frequencies --    968.9449              1004.0028              1027.3413
 Red. masses --      1.2835                 3.4952                 4.0633
 Frc consts  --      0.7100                 2.0758                 2.5267
 IR Inten    --      0.2247                12.8016               246.8931

                     25                     26                     27
                      A                      A                      A
 Frequencies --   1060.9480              1189.7505              1217.9258
 Red. masses --      1.5103                 1.2234                 1.2619
 Frc consts  --      1.0016                 1.0203                 1.1028
 IR Inten    --     19.7005                25.8110               382.9886

                     28                     29                     30
                      A                      A                      A
 Frequencies --   1287.1600              1363.2080              1378.1367
 Red. masses --      1.7904                 1.3821                 2.4192
 Frc consts  --      1.7477                 1.5132                 2.7072
 IR Inten    --    251.3906                30.5251                77.3914

                     31                     32                     33
                      A                      A                      A
 Frequencies --   1421.6027              1435.9811              1551.9021
 Red. masses --      2.3101                 4.0646                 4.7515
 Frc consts  --      2.7506                 4.9382                 6.7423
 IR Inten    --     71.3227                22.9264                79.6124

                     34                     35                     36
                      A                      A                      A
 Frequencies --   1562.7195              1575.4258              1658.3778
 Red. masses --      2.7502                 5.2758                 4.4607
 Frc consts  --      3.9571                 7.7150                 7.2280
 IR Inten    --     72.8095                 5.0894               891.4091

                     37                     38                     39
                      A                      A                      A
 Frequencies --   1686.3181              1715.9609              3239.7280
 Red. masses --      2.3991                 1.8720                 1.0916
 Frc consts  --      4.0196                 3.2477                 6.7506
 IR Inten    --     66.4878               272.9284                 0.1466

                     40                     41                     42
                      A                      A                      A
 Frequencies --   3240.1561              3264.4578              3278.7882
 Red. masses --      1.0925                 1.0959                 1.0952
 Frc consts  --      6.7580                 6.8811                 6.9368
 IR Inten    --      0.1296                 9.9488                 8.5636

                     43                     44                     45
                      A                      A                      A
 Frequencies --   3601.5866              3676.3354              3728.8160
 Red. masses --      1.0477                 1.0665                 1.1058
 Frc consts  --      8.0075                 8.4930                 9.0591
 IR Inten    --    443.2767               380.5040                88.5800

 - Thermochemistry -
 -------------------
 Temperature   298.150 Kelvin.  Pressure   1.00000 Atm.
 Atom     1 has atomic number  6 and mass  12.00000

 Molecular mass:   139.05075 amu.
 Principal axes and moments of inertia in atomic units:
                           1         2         3
     Eigenvalues --   482.636512202.428882685.06539
           X            0.99998  -0.00613   0.00000
           Y            0.00613   0.99998  -0.00000
           Z           -0.00000   0.00000   1.00000
 This molecule is an asymmetric top.
 Rotational symmetry number  1.
 Warning -- assumption of classical behavior for rotation
           may cause significant error
 Rotational temperatures (Kelvin)      0.17946     0.03933     0.03226
 Rotational constants (GHZ):           3.73934     0.81943     0.67214
 Zero-point vibrational energy     347205.4 (Joules/Mol)
                                   82.98407 (Kcal/Mol)
 Warning -- explicit consideration of  14 degrees of freedom as
           vibrations may cause significant error
 Vibrational temperatures:    130.22   138.31   323.90   356.46   532.81
          (Kelvin)            540.40   579.02   611.10   660.89   701.63
                              764.21   794.03   868.67   880.72   907.93
                              930.32  1049.65  1156.19  1188.45  1210.43
                             1375.51  1394.09  1444.53  1478.11  1526.47
                             1711.78  1752.32  1851.93  1961.35  1982.83
                             2045.37  2066.05  2232.84  2248.40  2266.68
                             2386.03  2426.23  2468.88  4661.24  4661.86
                             4696.82  4717.44  5181.87  5289.42  5364.93

 Zero-point correction=                           0.132244 (Hartree/Particle)
 Thermal correction to Energy=                    0.140914
 Thermal correction to Enthalpy=                  0.141858
 Thermal correction to Gibbs Free Energy=         0.098759
 Sum of electronic and zero-point Energies=           -491.891146
 Sum of electronic and thermal Energies=              -491.882476
 Sum of electronic and thermal Enthalpies=            -491.881532
 Sum of electronic and thermal Free Energies=         -491.924631

                     E (Thermal)             CV                S
                      KCal/Mol        Cal/Mol-Kelvin    Cal/Mol-Kelvin
 Total                   88.425             34.011             90.709
 Electronic               0.000              0.000              0.000
 Translational            0.889              2.981             40.701
 Rotational               0.889              2.981             29.436
 Vibrational             86.648             28.050             20.573
 Vibration     1          0.602              1.956              3.649
 Vibration     2          0.603              1.952              3.531
 Vibration     3          0.650              1.803              1.918
 Vibration     4          0.661              1.767              1.747
 Vibration     5          0.742              1.533              1.078
 Vibration     6          0.746              1.522              1.057
 Vibration     7          0.768              1.465              0.954
 Vibration     8          0.787              1.416              0.876
 Vibration     9          0.817              1.340              0.768
 Vibration    10          0.844              1.277              0.690
 Vibration    11          0.886              1.181              0.585
 Vibration    12          0.907              1.136              0.540
 Vibration    13          0.962              1.024              0.443
 Vibration    14          0.971              1.006              0.429

 Optimization completed.
    -- Stationary point found.
 Normal termination of Gaussian 09 at Thu Dec 19 00:11:12 2024.
