 Gaussian 09, Revision E.01,
 Gaussian 09:  ES64L-G09RevE.01 30-Nov-2015

 -----------------------------------------------------
 # opt freq B2PLYP/6-31+g(d,p) EmpiricalDispersion=GD3
 -----------------------------------------------------

 ----------
 [No Title]
 ----------
 Symbolic Z-matrix:
 Charge =  0 Multiplicity = 1

 SCF Done:  E(RB2PLYP) =  -491.170296251     A.U. after   15 cycles
 E2(B2PLYP) =    -0.5074306312D+00 E(B2PLYP) =    -0.49167772688194D+03
 SCF Done:  E(RB2PLYP) =  -491.168999023     A.U. after   12 cycles
 E2(B2PLYP) =    -0.5091894068D+00 E(B2PLYP) =    -0.49167818843000D+03
 SCF Done:  E(RB2PLYP) =  -491.168641963     A.U. after   12 cycles
 E2(B2PLYP) =    -0.5094664717D+00 E(B2PLYP) =    -0.49167810843479D+03
 SCF Done:  E(RB2PLYP) =  -491.167981943     A.U. after   13 cycles
 E2(B2PLYP) =    -0.5101513705D+00 E(B2PLYP) =    -0.49167813331319D+03
 SCF Done:  E(RB2PLYP) =  -491.168806916     A.U. after   10 cycles
 E2(B2PLYP) =    -0.5093998351D+00 E(B2PLYP) =    -0.49167820675084D+03
 Optimization completed.
    -- Stationary point found.
 Normal termination of Gaussian 09 at Wed Dec 18 23:12:53 2024.

 ----------------------------------------------------------------------
 #N Geom=AllCheck Guess=TCheck SCRF=Check GenChk RB2PLYP(FC)/6-31+G(d,p
 ) Freq
 ----------------------------------------------------------------------

 Structure from the checkpoint file:  "B2PLYPD3PNA.chk"
 ----------
 [No Title]
 ----------
 Charge =  0 Multiplicity = 1

                         Standard orientation:
 ---------------------------------------------------------------------
 Center     Atomic      Atomic             Coordinates (Angstroms)
 Number     Number       Type             X           Y           Z
 ---------------------------------------------------------------------
      1          6           0       -0.022019   -1.216765   -0.000030
      2          6           0       -0.709494    0.000000   -0.000082
      3          6           0       -0.022019    1.216765   -0.000101
      4          6           0        1.365044    1.215087   -0.000080
      5          6           0        2.083669   -0.000000   -0.000033
      6          6           0        1.365044   -1.215087   -0.000009
      7          7           0        3.454844    0.000000   -0.000019
      8          7           0       -2.165860    0.000000   -0.000109
      9          8           0       -2.748937    1.097143    0.000160
     10          8           0       -2.748937   -1.097143    0.000227
     11          1           0       -0.578067   -2.144148   -0.000012
     12          1           0       -0.578067    2.144148   -0.000137
     13          1           0        1.903132    2.156626   -0.000100
     14          1           0        1.903132   -2.156627    0.000026
     15          1           0        3.974306   -0.859822    0.000047
     16          1           0        3.974306    0.859823   -0.000004
 ---------------------------------------------------------------------

 SCF Done:  E(RB2PLYP) =  -491.168806916     A.U. after    2 cycles
 E2(B2PLYP) =    -0.5093998369D+00 E(B2PLYP) =    -0.49167820675270D+03
 E2(B2PLYP) =    -0.5093998369D+00 E(B2PLYP) =    -0.49167820675270D+03

 The electronic state is 1-A.
 Alpha  occ. eigenvalues --  -19.77770 -19.77767 -15.10680 -14.89775 -10.71630
 Alpha  occ. eigenvalues --  -10.68748 -10.66754 -10.66752 -10.65445 -10.65445
 Alpha  occ. eigenvalues --   -1.36825  -1.18255  -1.08739  -1.00746  -0.91217
 Alpha  occ. eigenvalues --   -0.89363  -0.80213  -0.74359  -0.69834  -0.65034
 Alpha  occ. eigenvalues --   -0.63321  -0.62429  -0.59993  -0.58962  -0.54523
 Alpha  occ. eigenvalues --   -0.53396  -0.52234  -0.49586  -0.48003  -0.43827
 Alpha  occ. eigenvalues --   -0.40146  -0.38292  -0.36841  -0.36302  -0.32138
 Alpha  occ. eigenvalues --   -0.27422
 Alpha virt. eigenvalues --   -0.03589   0.01273   0.01742   0.03525   0.04140
 Alpha virt. eigenvalues --    0.05771   0.06374   0.06769   0.09078   0.09103
 Alpha virt. eigenvalues --    0.10457   0.10832   0.11637   0.12259   0.13898

 Mulliken charges:
               1
     1  C    0.042526
     2  C   -0.399731
     3  C    0.042526
     4  C    0.042346
     5  C   -0.029959
     6  C    0.042346
     7  N   -0.665630
     8  N   -0.120866
     9  O   -0.127139
    10  O   -0.127139
    11  H    0.191316
    12  H    0.191316
    13  H    0.140579
    14  H    0.140579
    15  H    0.318466
    16  H    0.318466
 Sum of Mulliken charges =   0.00000

 Dipole moment (field-independent basis, Debye):
    X=              7.8648    Y=              0.0000    Z=             -0.0006  Tot=              7.8648
 Quadrupole moment (field-independent basis, Debye-Ang):
   XX=            -58.1306   YY=            -52.9747   ZZ=            -61.2381
   XY=             -0.0000   XZ=              0.0027   YZ=             -0.0002

  Exact polarizability: 155.072  -0.000  99.665  -0.002  -0.001  50.828
 Approx polarizability: 165.531  -0.000 136.001  -0.002  -0.002  62.915

 ******    1 imaginary frequencies (negative Signs) ******

                      1                      2                      3
                      A                      A                      A
 Frequencies --   -389.3742                56.5050               106.6820
 Red. masses --      1.2698                 7.6864                 5.7605
 Frc consts  --      0.1134                 0.0145                 0.0386
 IR Inten    --    233.6568                 0.0000                 0.0077

                      4                      5                      6
                      A                      A                      A
 Frequencies --    230.5915               277.2880               366.9563
 Red. masses --      6.4949                 5.5082                 9.5633
 Frc consts  --      0.2035                 0.2495                 0.7587
 IR Inten    --      0.1924                 4.1331                 0.0018

                      7                      8                      9
                      A                      A                      A
 Frequencies --    381.0241               396.1932               407.7924
 Red. masses --      1.0331                 3.1789                 3.1123
 Frc consts  --      0.0884                 0.2940                 0.3049
 IR Inten    --      0.0000                 0.8412                 0.0000

                     10                     11                     12
                      A                      A                      A
 Frequencies --    463.8625               534.3565               586.8094
 Red. masses --      3.2041                 6.7107                 5.2000
 Frc consts  --      0.4062                 1.1290                 1.0550
 IR Inten    --     20.4671                 2.2010                 5.0466

                     13                     14                     15
                      A                      A                      A
 Frequencies --    641.2786               647.8898               709.6888
 Red. masses --      7.1466                 6.8575                 7.9984
 Frc consts  --      1.7316                 1.6960                 2.3735
 IR Inten    --     17.1513                 0.8488                22.4523

                     16                     17                     18
                      A                      A                      A
 Frequencies --    808.9367               809.1355               819.3324
 Red. masses --      1.2565                 1.5760                 6.9423
 Frc consts  --      0.4844                 0.6079                 2.7458
 IR Inten    --      0.0000                47.7691                 4.2128

                     19                     20                     21
                      A                      A                      A
 Frequencies --    868.2296               932.0790               952.3651
 Red. masses --      7.2193                 1.1619                 1.2948
 Frc consts  --      3.2064                 0.5947                 0.6919
 IR Inten    --     20.7281                 5.2975                 0.0000

                     22                     23                     24
                      A                      A                      A
 Frequencies --   1026.2101              1052.1160              1141.5482
 Red. masses --      2.9440                 1.4075                 2.9377
 Frc consts  --      1.8267                 0.9179                 2.2555
 IR Inten    --      1.8861                 0.0257                86.0886

                     25                     26                     27
                      A                      A                      A
 Frequencies --   1164.0338              1221.5357              1347.2374
 Red. masses --      1.1911                 1.2639                 1.3192
 Frc consts  --      0.9509                 1.1112                 1.4108
 IR Inten    --     14.5179                60.8842                 0.0962

                     28                     29                     30
                      A                      A                      A
 Frequencies --   1349.6190              1361.4744              1406.6893
 Red. masses --      4.9786                 4.4190                 7.4608
 Frc consts  --      5.3430                 4.8260                 8.6982
 IR Inten    --    581.5047               127.2379                 0.7330

                     31                     32                     33
                      A                      A                      A
 Frequencies --   1489.4307              1553.7874              1570.2579
 Red. masses --      3.3460                 2.6165                11.8272
 Frc consts  --      4.3734                 3.7219                17.1821
 IR Inten    --      3.4205                42.8839               174.8950

                     34                     35                     36
                      A                      A                      A
 Frequencies --   1649.2212              1660.3137              1686.5353
 Red. masses --      7.5351                 3.0238                 1.4714
 Frc consts  --     12.0753                 4.9111                 2.4658
 IR Inten    --     46.7005               108.5821               357.7287

                     37                     38                     39
                      A                      A                      A
 Frequencies --   3217.0355              3217.6424              3267.7229
 Red. masses --      1.0908                 1.0907                 1.0930
 Frc consts  --      6.6511                 6.6529                 6.8762
 IR Inten    --     10.3784                12.3886                 0.2794

                     40                     41                     42
                      A                      A                      A
 Frequencies --   3267.8333              3663.1367              3795.3278
 Red. masses --      1.0936                 1.0459                 1.1051
 Frc consts  --      6.8809                 8.2688                 9.3788
 IR Inten    --      3.0704               128.9681                44.8665

 - Thermochemistry -
 -------------------
 Temperature   298.150 Kelvin.  Pressure   1.00000 Atm.
 Atom     1 has atomic number  6 and mass  12.00000

 Molecular mass:   138.04293 amu.
 Principal axes and moments of inertia in atomic units:
                           1         2         3
     Eigenvalues --   462.829672201.388712664.21838
           X            1.00000   0.00000   0.00003
           Y           -0.00000   1.00000   0.00003
           Z           -0.00003  -0.00003   1.00000
 This molecule is an asymmetric top.
 Rotational symmetry number  1.
 Warning -- assumption of classical behavior for rotation
           may cause significant error
 Rotational temperatures (Kelvin)      0.18714     0.03935     0.03251
 Rotational constants (GHZ):           3.89936     0.81982     0.67740
    1 imaginary frequencies ignored.
 Zero-point vibrational energy     311661.3 (Joules/Mol)
                                   74.48884 (Kcal/Mol)
 Warning -- explicit consideration of  11 degrees of freedom as
           vibrations may cause significant error
 Vibrational temperatures:     81.30   153.49   331.77   398.96   527.97
          (Kelvin)            548.21   570.03   586.72   667.39   768.82
                              844.29   922.66   932.17  1021.08  1163.88
                             1164.16  1178.84  1249.19  1341.05  1370.24
                             1476.49  1513.76  1642.43  1674.78  1757.52
                             1938.37  1941.80  1958.86  2023.91  2142.96
                             2235.55  2259.25  2372.86  2388.82  2426.55
                             4628.59  4629.46  4701.52  4701.68  5270.43
                             5460.62

 Zero-point correction=                           0.118706 (Hartree/Particle)
 Thermal correction to Energy=                    0.126885
 Thermal correction to Enthalpy=                  0.127829
 Thermal correction to Gibbs Free Energy=         0.085206
 Sum of electronic and zero-point Energies=           -491.559501
 Sum of electronic and thermal Energies=              -491.551322
 Sum of electronic and thermal Enthalpies=            -491.550378
 Sum of electronic and thermal Free Energies=         -491.593000

                     E (Thermal)             CV                S
                      KCal/Mol        Cal/Mol-Kelvin    Cal/Mol-Kelvin
 Total                   79.621             31.091             89.707
 Electronic               0.000              0.000              0.000
 Translational            0.889              2.981             40.679
 Rotational               0.889              2.981             29.386
 Vibrational             77.844             25.129             19.642
 Vibration     1          0.596              1.975              4.576
 Vibration     2          0.606              1.944              3.328
 Vibration     3          0.652              1.794              1.874
 Vibration     4          0.678              1.715              1.550
 Vibration     5          0.740              1.540              1.092
 Vibration     6          0.751              1.511              1.035
 Vibration     7          0.763              1.478              0.977
 Vibration     8          0.772              1.453              0.934
 Vibration     9          0.821              1.330              0.755
 Vibration    10          0.889              1.174              0.578
 Vibration    11          0.944              1.060              0.473

 Optimization completed.
    -- Stationary point found.
 Normal termination of Gaussian 09 at Wed Dec 18 23:21:48 2024.
