 Gaussian 09, Revision E.01,
 Gaussian 09:  ES64L-G09RevE.01 30-Nov-2015

 ----------------------------------------------------
 # opt freq b3lyp/6-31+g(d,p) EmpiricalDispersion=GD3
 ----------------------------------------------------

 ----------
 [No Title]
 ----------
 Symbolic Z-matrix:
 Charge =  1 Multiplicity = 1

 SCF Done:  E(RB3LYP) =  -492.504798656     A.U. after   17 cycles
 SCF Done:  E(RB3LYP) =  -492.505021667     A.U. after   12 cycles
 SCF Done:  E(RB3LYP) =  -492.505043639     A.U. after   11 cycles
 SCF Done:  E(RB3LYP) =  -492.505048570     A.U. after   10 cycles
 SCF Done:  E(RB3LYP) =  -492.505048615     A.U. after   10 cycles
 SCF Done:  E(RB3LYP) =  -492.505049204     A.U. after    9 cycles
 Optimization completed.
    -- Stationary point found.
 Normal termination of Gaussian 09 at Tue Dec 17 19:43:54 2024.

 ----------------------------------------------------------------------
 #N Geom=AllCheck Guess=TCheck SCRF=Check GenChk RB3LYP/6-31+G(d,p) Fre
 q
 ----------------------------------------------------------------------

 Structure from the checkpoint file:  "b3lypD3PNAyang.chk"
 ----------
 [No Title]
 ----------
 Charge =  1 Multiplicity = 1

                         Standard orientation:
 ---------------------------------------------------------------------
 Center     Atomic      Atomic             Coordinates (Angstroms)
 Number     Number       Type             X           Y           Z
 ---------------------------------------------------------------------
      1          6           0       -0.060445    1.264505    0.000019
      2          6           0        0.668538    0.037821    0.000047
      3          6           0       -0.007487   -1.218348    0.000032
      4          6           0       -1.373909   -1.240300    0.000013
      5          6           0       -2.122844   -0.018428   -0.000002
      6          6           0       -1.425419    1.234245    0.000001
      7          7           0       -3.459211   -0.045892   -0.000018
      8          7           0        2.033844    0.110211    0.000067
      9          8           0        2.677455   -1.103475   -0.000066
     10          8           0        2.711542    1.121623   -0.000045
     11          1           0        0.478322    2.205089    0.000024
     12          1           0        0.556213   -2.142679    0.000044
     13          1           0       -1.900861   -2.188985    0.000011
     14          1           0       -1.990307    2.160885   -0.000009
     15          1           0       -4.006718    0.804566   -0.000029
     16          1           0       -3.971803   -0.917816   -0.000020
     17          1           0        3.630143   -0.873447   -0.000151
 ---------------------------------------------------------------------

 SCF Done:  E(RB3LYP) =  -492.505049204     A.U. after    1 cycles

 The electronic state is 1-A.
 Alpha  occ. eigenvalues --  -19.41995 -19.38634 -14.75656 -14.55966 -10.45024
 Alpha  occ. eigenvalues --  -10.43245 -10.39624 -10.39453 -10.38162 -10.38156
 Alpha  occ. eigenvalues --   -1.41282  -1.25432  -1.13525  -1.07766  -1.00166
 Alpha  occ. eigenvalues --   -0.94870  -0.88940  -0.82714  -0.80269  -0.75667
 Alpha  occ. eigenvalues --   -0.73597  -0.72108  -0.71495  -0.70874  -0.64776
 Alpha  occ. eigenvalues --   -0.62712  -0.61977  -0.61217  -0.59531  -0.58404
 Alpha  occ. eigenvalues --   -0.53515  -0.53431  -0.51370  -0.49816  -0.45007
 Alpha  occ. eigenvalues --   -0.40893
 Alpha virt. eigenvalues --   -0.29154  -0.19063  -0.16543  -0.13947  -0.13153
 Alpha virt. eigenvalues --   -0.10899  -0.10220  -0.09545  -0.07769  -0.07575
 Alpha virt. eigenvalues --   -0.07139  -0.05500  -0.05476  -0.04400  -0.03704

 Mulliken charges:
               1
     1  C   -0.036129
     2  C   -0.376531
     3  C    0.205202
     4  C    0.015338
     5  C    0.213518
     6  C    0.048638
     7  N   -0.552163
     8  N   -0.346698
     9  O   -0.030624
    10  O    0.047401
    11  H    0.197067
    12  H    0.196175
    13  H    0.165594
    14  H    0.167376
    15  H    0.345739
    16  H    0.345475
    17  H    0.394622
 Sum of Mulliken charges =   1.00000

 Dipole moment (field-independent basis, Debye):
    X=             -3.8209    Y=             -1.0962    Z=             -0.0001  Tot=              3.9751
 Quadrupole moment (field-independent basis, Debye-Ang):
   XX=             -8.5227   YY=            -44.8678   ZZ=            -58.6447
   XY=             -4.7116   XZ=             -0.0004   YZ=              0.0002

  Exact polarizability: 196.639   5.352  88.488  -0.000  -0.000  45.084
 Approx polarizability: 453.705  35.730 151.207   0.000  -0.001  66.363

                      1                      2                      3
                      A                      A                      A
 Frequencies --     95.2309               102.6838               227.7457
 Red. masses --      4.9521                 7.1565                 5.7550
 Frc consts  --      0.0265                 0.0445                 0.1759
 IR Inten    --      2.7175                 0.2321                 1.1398

                      4                      5                      6
                      A                      A                      A
 Frequencies --    259.4570               371.0758               394.0381
 Red. masses --      4.5874                 8.3005                 2.1426
 Frc consts  --      0.1819                 0.6734                 0.1960
 IR Inten    --      0.1651                 0.9826                28.2535

                      7                      8                      9
                      A                      A                      A
 Frequencies --    407.0416               440.2876               483.3568
 Red. masses --      3.2135                 1.2577                 2.1312
 Frc consts  --      0.3137                 0.1437                 0.2934
 IR Inten    --      0.1197               143.6084                11.4997

                     10                     11                     12
                      A                      A                      A
 Frequencies --    533.0750               534.1128               557.0514
 Red. masses --      1.3326                 5.7763                 1.0654
 Frc consts  --      0.2231                 0.9709                 0.1948
 IR Inten    --    186.2021                12.1654                 0.1609

                     13                     14                     15
                      A                      A                      A
 Frequencies --    609.3234               630.3459               667.1963
 Red. masses --      5.9899                 6.8758                 5.4099
 Frc consts  --      1.3103                 1.6096                 1.4189
 IR Inten    --     25.4064                 4.9699                13.9965

                     16                     17                     18
                      A                      A                      A
 Frequencies --    728.4010               735.2087               811.6634
 Red. masses --      5.2746                 5.4315                 1.2758
 Frc consts  --      1.6489                 1.7298                 0.4952
 IR Inten    --      0.4864                16.1341                 0.3362

                     19                     20                     21
                      A                      A                      A
 Frequencies --    837.6892               856.1150               992.3121
 Red. masses --      5.6741                 1.8357                 1.2990
 Frc consts  --      2.3459                 0.7927                 0.7536
 IR Inten    --     26.1789                67.2497                 0.0737

                     22                     23                     24
                      A                      A                      A
 Frequencies --    998.0445               999.0226              1032.7470
 Red. masses --      1.3053                 3.2343                 3.6317
 Frc consts  --      0.7661                 1.9019                 2.2822
 IR Inten    --      0.1479                 4.4295               211.6487

                     25                     26                     27
                      A                      A                      A
 Frequencies --   1055.4183              1188.9954              1211.5672
 Red. masses --      1.6511                 1.2348                 1.3108
 Frc consts  --      1.0836                 1.0285                 1.1336
 IR Inten    --     50.6333                34.8775               485.0995

                     28                     29                     30
                      A                      A                      A
 Frequencies --   1279.9495              1356.4789              1384.3400
 Red. masses --      1.6585                 1.3851                 2.3523
 Frc consts  --      1.6008                 1.5016                 2.6560
 IR Inten    --    251.3777                27.2657                94.8609

                     31                     32                     33
                      A                      A                      A
 Frequencies --   1414.8233              1419.8819              1537.2461
 Red. masses --      2.5066                 4.0942                 4.7286
 Frc consts  --      2.9563                 4.8632                 6.5836
 IR Inten    --     38.4892                34.8404                83.7212

                     34                     35                     36
                      A                      A                      A
 Frequencies --   1552.5558              1565.5995              1643.4020
 Red. masses --      2.6627                 5.1095                 4.4131
 Frc consts  --      3.7816                 7.3788                 7.0223
 IR Inten    --     60.1097                 2.6441               996.1145

                     37                     38                     39
                      A                      A                      A
 Frequencies --   1684.0671              1707.5346              3209.7287
 Red. masses --      1.6965                 2.7905                 1.0916
 Frc consts  --      2.8349                 4.7936                 6.6257
 IR Inten    --    206.2555               118.3695                 0.1669

                     40                     41                     42
                      A                      A                      A
 Frequencies --   3210.0801              3237.3416              3249.7480
 Red. masses --      1.0924                 1.0956                 1.0950
 Frc consts  --      6.6321                 6.7650                 6.8131
 IR Inten    --      0.0442                 9.6728                 7.9380

                     43                     44                     45
                      A                      A                      A
 Frequencies --   3577.0799              3665.4702              3698.2866
 Red. masses --      1.0477                 1.0666                 1.1057
 Frc consts  --      7.8981                 8.4436                 8.9101
 IR Inten    --    375.5324               369.2476                83.8234

 - Thermochemistry -
 -------------------
 Temperature   298.150 Kelvin.  Pressure   1.00000 Atm.
 Atom     1 has atomic number  6 and mass  12.00000

 Molecular mass:   139.05075 amu.
 Principal axes and moments of inertia in atomic units:
                           1         2         3
     Eigenvalues --   481.623472204.991762686.61523
           X            0.99998  -0.00612   0.00000
           Y            0.00612   0.99998  -0.00000
           Z           -0.00000   0.00000   1.00000
 This molecule is an asymmetric top.
 Rotational symmetry number  1.
 Warning -- assumption of classical behavior for rotation
           may cause significant error
 Rotational temperatures (Kelvin)      0.17984     0.03928     0.03224
 Rotational constants (GHZ):           3.74720     0.81848     0.67175
 Zero-point vibrational energy     347831.1 (Joules/Mol)
                                   83.13363 (Kcal/Mol)
 Warning -- explicit consideration of  13 degrees of freedom as
           vibrations may cause significant error
 Vibrational temperatures:    137.02   147.74   327.67   373.30   533.89
          (Kelvin)            566.93   585.64   633.47   695.44   766.98
                              768.47   801.47   876.68   906.93   959.95
                             1048.01  1057.80  1167.80  1205.25  1231.76
                             1427.71  1435.96  1437.37  1485.89  1518.51
                             1710.70  1743.17  1841.56  1951.67  1991.75
                             2035.61  2042.89  2211.75  2233.78  2252.55
                             2364.49  2422.99  2456.76  4618.08  4618.58
                             4657.81  4675.66  5146.61  5273.79  5321.00

 Zero-point correction=                           0.132482 (Hartree/Particle)
 Thermal correction to Energy=                    0.140934
 Thermal correction to Enthalpy=                  0.141878
 Thermal correction to Gibbs Free Energy=         0.099210
 Sum of electronic and zero-point Energies=           -492.372567
 Sum of electronic and thermal Energies=              -492.364115
 Sum of electronic and thermal Enthalpies=            -492.363171
 Sum of electronic and thermal Free Energies=         -492.405839

                     E (Thermal)             CV                S
                      KCal/Mol        Cal/Mol-Kelvin    Cal/Mol-Kelvin
 Total                   88.437             33.334             89.801
 Electronic               0.000              0.000              0.000
 Translational            0.889              2.981             40.701
 Rotational               0.889              2.981             29.435
 Vibrational             86.660             27.372             19.665
 Vibration     1          0.603              1.953              3.550
 Vibration     2          0.605              1.947              3.403
 Vibration     3          0.651              1.799              1.897
 Vibration     4          0.668              1.747              1.665
 Vibration     5          0.743              1.532              1.075
 Vibration     6          0.761              1.483              0.985
 Vibration     7          0.772              1.455              0.937
 Vibration     8          0.800              1.382              0.826
 Vibration     9          0.840              1.287              0.701
 Vibration    10          0.888              1.177              0.580
 Vibration    11          0.889              1.175              0.578
 Vibration    12          0.913              1.124              0.530
 Vibration    13          0.968              1.012              0.434

 Optimization completed.
    -- Stationary point found.
 Normal termination of Gaussian 09 at Tue Dec 17 19:44:33 2024.
