 Gaussian 09, Revision E.01,
 Gaussian 09:  ES64L-G09RevE.01 30-Nov-2015

 ----------------------------------------------------
 # opt freq b3lyp/6-31+g(d,p) EmpiricalDispersion=GD3
 ----------------------------------------------------

 ----------
 [No Title]
 ----------
 Symbolic Z-matrix:
 Charge =  0 Multiplicity = 1

 SCF Done:  E(RB3LYP) =  -492.156166943     A.U. after   14 cycles
 SCF Done:  E(RB3LYP) =  -492.156366197     A.U. after   12 cycles
 SCF Done:  E(RB3LYP) =  -492.156269278     A.U. after   12 cycles
 SCF Done:  E(RB3LYP) =  -492.156373701     A.U. after   12 cycles
 SCF Done:  E(RB3LYP) =  -492.156376600     A.U. after    9 cycles
 Optimization completed.
    -- Stationary point found.
 Normal termination of Gaussian 09 at Tue Dec 17 19:29:42 2024.

 ----------------------------------------------------------------------
 #N Geom=AllCheck Guess=TCheck SCRF=Check GenChk RB3LYP/6-31+G(d,p) Fre
 q
 ----------------------------------------------------------------------

 Structure from the checkpoint file:  "b3lypD3PNA.chk"
 ----------
 [No Title]
 ----------
 Charge =  0 Multiplicity = 1

                         Standard orientation:
 ---------------------------------------------------------------------
 Center     Atomic      Atomic             Coordinates (Angstroms)
 Number     Number       Type             X           Y           Z
 ---------------------------------------------------------------------
      1          6           0       -0.020706   -1.216765    0.000034
      2          6           0       -0.711828    0.000000    0.000007
      3          6           0       -0.020706    1.216765   -0.000037
      4          6           0        1.365019    1.216505   -0.000055
      5          6           0        2.085432    0.000000   -0.000029
      6          6           0        1.365019   -1.216505    0.000016
      7          7           0        3.455773    0.000000   -0.000051
      8          7           0       -2.167587    0.000000    0.000027
      9          8           0       -2.749759    1.091364    0.000009
     10          8           0       -2.749759   -1.091364    0.000076
     11          1           0       -0.578291   -2.145373    0.000068
     12          1           0       -0.578291    2.145373   -0.000057
     13          1           0        1.903956    2.159756   -0.000090
     14          1           0        1.903956   -2.159756    0.000036
     15          1           0        3.977070   -0.860755   -0.000010
     16          1           0        3.977070    0.860755   -0.000062
 ---------------------------------------------------------------------

 SCF Done:  E(RB3LYP) =  -492.156376600     A.U. after    3 cycles

 The electronic state is 1-A.
 Alpha  occ. eigenvalues --  -19.18000 -19.17999 -14.56879 -14.38735 -10.27477
 Alpha  occ. eigenvalues --  -10.24765 -10.22580 -10.22579 -10.21852 -10.21852
 Alpha  occ. eigenvalues --   -1.21855  -1.04533  -0.96170  -0.88362  -0.79877
 Alpha  occ. eigenvalues --   -0.78026  -0.70001  -0.64991  -0.60739  -0.56609
 Alpha  occ. eigenvalues --   -0.55780  -0.54285  -0.52653  -0.50625  -0.47155
 Alpha  occ. eigenvalues --   -0.46291  -0.45216  -0.42823  -0.41848  -0.37489
 Alpha  occ. eigenvalues --   -0.34688  -0.30830  -0.30826  -0.28842  -0.28394
 Alpha  occ. eigenvalues --   -0.23878
 Alpha virt. eigenvalues --   -0.08879  -0.03653  -0.02012   0.00089   0.00688
 Alpha virt. eigenvalues --    0.01071   0.03542   0.04132   0.05628   0.05999
 Alpha virt. eigenvalues --    0.07305   0.08076   0.08328   0.08875   0.10357

 Mulliken charges:
               1
     1  C   -0.053283
     2  C   -0.205249
     3  C   -0.053283
     4  C   -0.003306
     5  C    0.184203
     6  C   -0.003306
     7  N   -0.649424
     8  N   -0.271521
     9  O   -0.067368
    10  O   -0.067368
    11  H    0.166890
    12  H    0.166890
    13  H    0.119624
    14  H    0.119624
    15  H    0.308438
    16  H    0.308438
 Sum of Mulliken charges =  -0.00000

 Dipole moment (field-independent basis, Debye):
    X=              7.9359    Y=             -0.0000    Z=             -0.0001  Tot=              7.9359
 Quadrupole moment (field-independent basis, Debye-Ang):
   XX=            -57.0897   YY=            -53.2985   ZZ=            -60.8005
   XY=              0.0000   XZ=              0.0003   YZ=             -0.0002

  Exact polarizability: 158.053  -0.000  99.683  -0.002  -0.001  50.724
 Approx polarizability: 255.158  -0.000 184.038  -0.003  -0.003  73.879

 ******    1 imaginary frequencies (negative Signs) ******

                      1                      2                      3
                      A                      A                      A
 Frequencies --   -251.5726                69.4616               109.4055
 Red. masses --      1.2360                 7.6764                 5.8011
 Frc consts  --      0.0461                 0.0218                 0.0409
 IR Inten    --    228.1740                 0.0000                 0.0086

                      4                      5                      6
                      A                      A                      A
 Frequencies --    232.8550               287.0276               366.6288
 Red. masses --      6.5015                 5.5739                 9.5763
 Frc consts  --      0.2077                 0.2706                 0.7584
 IR Inten    --      0.2293                 4.0583                 0.0338

                      7                      8                      9
                      A                      A                      A
 Frequencies --    401.5680               404.8563               425.2896
 Red. masses --      3.2100                 1.0360                 2.8960
 Frc consts  --      0.3050                 0.1001                 0.3086
 IR Inten    --      0.8128                 0.0000                 0.0000

                     10                     11                     12
                      A                      A                      A
 Frequencies --    497.8038               538.6914               642.1366
 Red. masses --      2.6789                 6.6488                 7.1148
 Frc consts  --      0.3911                 1.1368                 1.7285
 IR Inten    --     18.6174                 2.9201                15.2062

                     13                     14                     15
                      A                      A                      A
 Frequencies --    646.2753               692.6381               750.8980
 Red. masses --      6.8696                 3.2643                 7.8205
 Frc consts  --      1.6905                 0.9227                 2.5980
 IR Inten    --      1.0180                11.7691                18.3567

                     16                     17                     18
                      A                      A                      A
 Frequencies --    817.2842               823.8094               846.1172
 Red. masses --      1.2590                 6.4380                 1.9043
 Frc consts  --      0.4955                 2.5743                 0.8032
 IR Inten    --      0.0000                 1.9328                46.0336

                     19                     20                     21
                      A                      A                      A
 Frequencies --    869.9840               975.5486               981.3722
 Red. masses --      7.9272                 1.2924                 1.3300
 Frc consts  --      3.5350                 0.7247                 0.7547
 IR Inten    --     19.3530                 1.5613                 0.0000

                     22                     23                     24
                      A                      A                      A
 Frequencies --   1021.3572              1044.7997              1137.7943
 Red. masses --      2.9186                 1.4077                 2.8867
 Frc consts  --      1.7938                 0.9054                 2.2018
 IR Inten    --      2.7453                 0.0587               140.8046

                     25                     26                     27
                      A                      A                      A
 Frequencies --   1161.9822              1219.9687              1340.5491
 Red. masses --      1.1959                 1.2754                 1.3233
 Frc consts  --      0.9514                 1.1184                 1.4011
 IR Inten    --     15.3676                49.6461                 0.0784

                     28                     29                     30
                      A                      A                      A
 Frequencies --   1343.6500              1369.4248              1384.1312
 Red. masses --      3.3935                 7.9247                 7.3498
 Frc consts  --      3.6097                 8.7561                 8.2963
 IR Inten    --    391.4311               442.0908                 1.4262

                     31                     32                     33
                      A                      A                      A
 Frequencies --   1483.4178              1542.7711              1569.6160
 Red. masses --      3.2999                 2.5693                11.0825
 Frc consts  --      4.2784                 3.6030                16.0869
 IR Inten    --      4.4820                52.1327               186.6737

                     34                     35                     36
                      A                      A                      A
 Frequencies --   1636.9609              1650.5884              1671.5130
 Red. masses --      7.8111                 2.7551                 1.5505
 Frc consts  --     12.3322                 4.4224                 2.5524
 IR Inten    --     90.2593                72.7815               371.4189

                     37                     38                     39
                      A                      A                      A
 Frequencies --   3185.5323              3186.2679              3238.2286
 Red. masses --      1.0905                 1.0904                 1.0927
 Frc consts  --      6.5197                 6.5222                 6.7507
 IR Inten    --     10.9921                13.4236                 0.2231

                     40                     41                     42
                      A                      A                      A
 Frequencies --   3238.4556              3631.7703              3758.4431
 Red. masses --      1.0934                 1.0459                 1.1050
 Frc consts  --      6.7561                 8.1278                 9.1966
 IR Inten    --      3.5370               121.5558                42.1580

 - Thermochemistry -
 -------------------
 Temperature   298.150 Kelvin.  Pressure   1.00000 Atm.
 Atom     1 has atomic number  6 and mass  12.00000

 Molecular mass:   138.04293 amu.
 Principal axes and moments of inertia in atomic units:
                           1         2         3
     Eigenvalues --   461.826952203.225922665.05287
           X            1.00000  -0.00000   0.00001
           Y           -0.00000   1.00000   0.00003
           Z           -0.00001  -0.00003   1.00000
 This molecule is an asymmetric top.
 Rotational symmetry number  1.
 Warning -- assumption of classical behavior for rotation
           may cause significant error
 Rotational temperatures (Kelvin)      0.18755     0.03931     0.03250
 Rotational constants (GHZ):           3.90783     0.81914     0.67719
    1 imaginary frequencies ignored.
 Zero-point vibrational energy     312206.6 (Joules/Mol)
                                   74.61918 (Kcal/Mol)
 Warning -- explicit consideration of  10 degrees of freedom as
           vibrations may cause significant error
 Vibrational temperatures:     99.94   157.41   335.03   412.97   527.50
          (Kelvin)            577.77   582.50   611.90   716.23   775.06
                              923.89   929.84   996.55  1080.37  1175.89
                             1185.28  1217.37  1251.71  1403.60  1411.97
                             1469.50  1503.23  1637.03  1671.83  1755.26
                             1928.75  1933.21  1970.29  1991.45  2134.30
                             2219.70  2258.32  2355.22  2374.83  2404.93
                             4583.26  4584.32  4659.08  4659.41  5225.30
                             5407.55

 Zero-point correction=                           0.118913 (Hartree/Particle)
 Thermal correction to Energy=                    0.126882
 Thermal correction to Enthalpy=                  0.127826
 Thermal correction to Gibbs Free Energy=         0.085710
 Sum of electronic and zero-point Energies=           -492.037463
 Sum of electronic and thermal Energies=              -492.029494
 Sum of electronic and thermal Enthalpies=            -492.028550
 Sum of electronic and thermal Free Energies=         -492.070667

                     E (Thermal)             CV                S
                      KCal/Mol        Cal/Mol-Kelvin    Cal/Mol-Kelvin
 Total                   79.620             30.455             88.643
 Electronic               0.000              0.000              0.000
 Translational            0.889              2.981             40.679
 Rotational               0.889              2.981             29.385
 Vibrational             77.842             24.494             18.579
 Vibration     1          0.598              1.969              4.169
 Vibration     2          0.606              1.942              3.279
 Vibration     3          0.654              1.791              1.857
 Vibration     4          0.684              1.698              1.491
 Vibration     5          0.740              1.541              1.094
 Vibration     6          0.767              1.467              0.957
 Vibration     7          0.770              1.460              0.945
 Vibration     8          0.787              1.415              0.874
 Vibration     9          0.853              1.255              0.664
 Vibration    10          0.894              1.164              0.568

 Optimization completed.
    -- Stationary point found.
 Normal termination of Gaussian 09 at Tue Dec 17 19:30:15 2024.
