 Gaussian 09, Revision E.01,
 Gaussian 09:  ES64L-G09RevE.01 30-Nov-2015

 -----------------------------------------------------
 # opt freq b3pw91/6-31+g(d,p) EmpiricalDispersion=GD3
 -----------------------------------------------------

 ----------
 [No Title]
 ----------
 Symbolic Z-matrix:
 Charge =  0 Multiplicity = 1

 SCF Done:  E(RB3PW91) =  -491.967710291     A.U. after   14 cycles
 SCF Done:  E(RB3PW91) =  -491.967711499     A.U. after   11 cycles
 SCF Done:  E(RB3PW91) =  -491.967680083     A.U. after   11 cycles
 SCF Done:  E(RB3PW91) =  -491.967713150     A.U. after   11 cycles
 Optimization completed.
    -- Stationary point found.
 Normal termination of Gaussian 09 at Thu Dec 19 00:13:30 2024.

 ----------------------------------------------------------------------
 #N Geom=AllCheck Guess=TCheck SCRF=Check GenChk RB3PW91/6-31+G(d,p) Fr
 eq
 ----------------------------------------------------------------------

 Structure from the checkpoint file:  "B3PW91D3PNA.chk"
 ----------
 [No Title]
 ----------
 Charge =  0 Multiplicity = 1

                         Standard orientation:
 ---------------------------------------------------------------------
 Center     Atomic      Atomic             Coordinates (Angstroms)
 Number     Number       Type             X           Y           Z
 ---------------------------------------------------------------------
      1          6           0       -0.022033   -1.214241    0.000028
      2          6           0       -0.711913    0.000000   -0.000001
      3          6           0       -0.022033    1.214241   -0.000043
      4          6           0        1.361290    1.214320   -0.000056
      5          6           0        2.081111   -0.000000   -0.000028
      6          6           0        1.361290   -1.214320    0.000015
      7          7           0        3.446726   -0.000000   -0.000045
      8          7           0       -2.162935    0.000000    0.000012
      9          8           0       -2.740262    1.086991    0.000020
     10          8           0       -2.740262   -1.086991    0.000087
     11          1           0       -0.580889   -2.142945    0.000061
     12          1           0       -0.580889    2.142945   -0.000065
     13          1           0        1.899394    2.158387   -0.000090
     14          1           0        1.899394   -2.158387    0.000036
     15          1           0        3.967186   -0.859920   -0.000003
     16          1           0        3.967186    0.859920   -0.000055
 ---------------------------------------------------------------------

 SCF Done:  E(RB3PW91) =  -491.967713150     A.U. after    1 cycles

 The electronic state is 1-A.
 Alpha  occ. eigenvalues --  -19.16751 -19.16750 -14.55751 -14.37612 -10.26088
 Alpha  occ. eigenvalues --  -10.23305 -10.21191 -10.21191 -10.20483 -10.20482
 Alpha  occ. eigenvalues --   -1.22807  -1.05257  -0.96675  -0.88804  -0.80237
 Alpha  occ. eigenvalues --   -0.78302  -0.70233  -0.65187  -0.60896  -0.56847
 Alpha  occ. eigenvalues --   -0.55951  -0.54510  -0.53146  -0.50841  -0.47093
 Alpha  occ. eigenvalues --   -0.46325  -0.45129  -0.42763  -0.42131  -0.37277
 Alpha  occ. eigenvalues --   -0.34891  -0.30971  -0.30790  -0.28829  -0.28561
 Alpha  occ. eigenvalues --   -0.23944
 Alpha virt. eigenvalues --   -0.08669  -0.03559  -0.00772   0.00392   0.01781
 Alpha virt. eigenvalues --    0.02159   0.04702   0.05265   0.06891   0.07143
 Alpha virt. eigenvalues --    0.08452   0.09301   0.09533   0.10010   0.11466

 Mulliken charges:
               1
     1  C    0.075433
     2  C   -0.547045
     3  C    0.075433
     4  C    0.087870
     5  C   -0.124786
     6  C    0.087870
     7  N   -0.627314
     8  N   -0.177772
     9  O   -0.079187
    10  O   -0.079187
    11  H    0.190236
    12  H    0.190236
    13  H    0.144341
    14  H    0.144341
    15  H    0.319765
    16  H    0.319765
 Sum of Mulliken charges =  -0.00000

 Dipole moment (field-independent basis, Debye):
    X=              7.8690    Y=              0.0000    Z=             -0.0001  Tot=              7.8690
 Quadrupole moment (field-independent basis, Debye-Ang):
   XX=            -55.7298   YY=            -52.4334   ZZ=            -60.4084
   XY=              0.0000   XZ=              0.0005   YZ=             -0.0002

  Exact polarizability: 155.106   0.000  98.077  -0.001  -0.001  49.340
 Approx polarizability: 250.374  -0.000 180.538  -0.003  -0.003  70.772

 ******    1 imaginary frequencies (negative Signs) ******

                      1                      2                      3
                      A                      A                      A
 Frequencies --   -246.9222                69.7222               109.0894
 Red. masses --      1.2333                 7.6840                 5.8342
 Frc consts  --      0.0443                 0.0220                 0.0409
 IR Inten    --    231.4261                 0.0000                 0.0040

                      4                      5                      6
                      A                      A                      A
 Frequencies --    232.6085               286.5895               367.3867
 Red. masses --      6.4915                 5.5747                 9.5184
 Frc consts  --      0.2069                 0.2698                 0.7569
 IR Inten    --      0.2144                 3.6052                 0.0053

                      7                      8                      9
                      A                      A                      A
 Frequencies --    400.3721               407.7174               423.7874
 Red. masses --      3.1677                 1.0643                 2.6957
 Frc consts  --      0.2992                 0.1042                 0.2852
 IR Inten    --      1.0071                 0.0000                 0.0000

                     10                     11                     12
                      A                      A                      A
 Frequencies --    494.7914               541.8864               643.0307
 Red. masses --      2.6760                 6.7814                 6.8247
 Frc consts  --      0.3860                 1.1732                 1.6626
 IR Inten    --     20.1133                 2.6049                 1.0367

                     13                     14                     15
                      A                      A                      A
 Frequencies --    645.0527               691.3469               756.5135
 Red. masses --      7.0975                 3.2444                 7.7488
 Frc consts  --      1.7400                 0.9136                 2.6129
 IR Inten    --     14.5588                11.0400                22.5681

                     16                     17                     18
                      A                      A                      A
 Frequencies --    815.8946               829.3324               844.8664
 Red. masses --      1.2599                 6.2068                 1.9371
 Frc consts  --      0.4941                 2.5152                 0.8147
 IR Inten    --      0.0000                 1.8552                46.4347

                     19                     20                     21
                      A                      A                      A
 Frequencies --    878.9509               972.2545               980.1739
 Red. masses --      8.2047                 1.2848                 1.3297
 Frc consts  --      3.7346                 0.7155                 0.7527
 IR Inten    --     22.0164                 1.7952                 0.0000

                     22                     23                     24
                      A                      A                      A
 Frequencies --   1021.2541              1046.1337              1147.6152
 Red. masses --      2.8438                 1.3953                 2.5141
 Frc consts  --      1.7475                 0.8997                 1.9509
 IR Inten    --      2.2081                 0.0280               140.7464

                     25                     26                     27
                      A                      A                      A
 Frequencies --   1159.2091              1220.4688              1333.3799
 Red. masses --      1.1751                 1.3169                 1.3123
 Frc consts  --      0.9303                 1.1557                 1.3747
 IR Inten    --     16.5038                26.9052                 0.2376

                     28                     29                     30
                      A                      A                      A
 Frequencies --   1356.0955              1399.5511              1405.4788
 Red. masses --      2.9670                10.6351                 7.4120
 Frc consts  --      3.2148                12.2735                 8.6265
 IR Inten    --    225.1687               610.7204                 0.7328

                     31                     32                     33
                      A                      A                      A
 Frequencies --   1490.4048              1549.3479              1606.3779
 Red. masses --      3.5146                 2.7184                10.1369
 Frc consts  --      4.5997                 3.8447                15.4117
 IR Inten    --      1.1556                47.9004               127.8322

                     34                     35                     36
                      A                      A                      A
 Frequencies --   1657.8200              1659.5284              1679.5183
 Red. masses --      1.6888                 9.1043                 2.5690
 Frc consts  --      2.7347                14.7729                 4.2696
 IR Inten    --      0.3765               156.2405               453.5312

                     37                     38                     39
                      A                      A                      A
 Frequencies --   3198.0995              3198.6444              3246.3927
 Red. masses --      1.0907                 1.0904                 1.0931
 Frc consts  --      6.5726                 6.5734                 6.7877
 IR Inten    --      9.7514                12.0435                 0.2756

                     40                     41                     42
                      A                      A                      A
 Frequencies --   3246.5418              3655.0555              3785.0089
 Red. masses --      1.0938                 1.0460                 1.1050
 Frc consts  --      6.7923                 8.2334                 9.3273
 IR Inten    --      3.9540               124.7649                45.7925

 - Thermochemistry -
 -------------------
 Temperature   298.150 Kelvin.  Pressure   1.00000 Atm.
 Atom     1 has atomic number  6 and mass  12.00000

 Molecular mass:   138.04293 amu.
 Principal axes and moments of inertia in atomic units:
                           1         2         3
     Eigenvalues --   459.629842190.856882650.48672
           X            1.00000   0.00000   0.00001
           Y           -0.00000   1.00000   0.00003
           Z           -0.00001  -0.00003   1.00000
 This molecule is an asymmetric top.
 Rotational symmetry number  1.
 Warning -- assumption of classical behavior for rotation
           may cause significant error
 Rotational temperatures (Kelvin)      0.18844     0.03953     0.03268
 Rotational constants (GHZ):           3.92651     0.82376     0.68091
    1 imaginary frequencies ignored.
 Zero-point vibrational energy     313740.4 (Joules/Mol)
                                   74.98575 (Kcal/Mol)
 Warning -- explicit consideration of  10 degrees of freedom as
           vibrations may cause significant error
 Vibrational temperatures:    100.31   156.96   334.67   412.34   528.59
          (Kelvin)            576.05   586.61   609.73   711.89   779.65
                              925.18   928.09   994.69  1088.45  1173.89
                             1193.22  1215.57  1264.61  1398.86  1410.25
                             1469.35  1505.15  1651.16  1667.84  1755.98
                             1918.43  1951.12  2013.64  2022.17  2144.36
                             2229.16  2311.22  2385.23  2387.69  2416.45
                             4601.35  4602.13  4670.83  4671.04  5258.80
                             5445.78

 Zero-point correction=                           0.119497 (Hartree/Particle)
 Thermal correction to Energy=                    0.127460
 Thermal correction to Enthalpy=                  0.128404
 Thermal correction to Gibbs Free Energy=         0.086303
 Sum of electronic and zero-point Energies=           -491.848216
 Sum of electronic and thermal Energies=              -491.840254
 Sum of electronic and thermal Enthalpies=            -491.839309
 Sum of electronic and thermal Free Energies=         -491.881410

                     E (Thermal)             CV                S
                      KCal/Mol        Cal/Mol-Kelvin    Cal/Mol-Kelvin
 Total                   79.982             30.390             88.608
 Electronic               0.000              0.000              0.000
 Translational            0.889              2.981             40.679
 Rotational               0.889              2.981             29.369
 Vibrational             78.205             24.429             18.560
 Vibration     1          0.598              1.969              4.161
 Vibration     2          0.606              1.942              3.285
 Vibration     3          0.653              1.791              1.859
 Vibration     4          0.684              1.699              1.494
 Vibration     5          0.740              1.539              1.091
 Vibration     6          0.766              1.469              0.961
 Vibration     7          0.772              1.453              0.935
 Vibration     8          0.786              1.419              0.879
 Vibration     9          0.850              1.262              0.671
 Vibration    10          0.897              1.157              0.561

 Optimization completed.
    -- Stationary point found.
 Normal termination of Gaussian 09 at Thu Dec 19 00:14:03 2024.
