 Gaussian 09, Revision E.01,
 Gaussian 09:  ES64L-G09RevE.01 30-Nov-2015

 -----------------------------------------------------
 # opt freq b3pw91/6-31+g(d,p) EmpiricalDispersion=GD3
 -----------------------------------------------------

 ----------
 [No Title]
 ----------
 Symbolic Z-matrix:
 Charge =  1 Multiplicity = 1

 SCF Done:  E(RB3PW91) =  -492.317281827     A.U. after   17 cycles
 SCF Done:  E(RB3PW91) =  -492.317284602     A.U. after   10 cycles
 SCF Done:  E(RB3PW91) =  -492.317284928     A.U. after    9 cycles
 Optimization completed.
    -- Stationary point found.
 Normal termination of Gaussian 09 at Thu Dec 19 11:03:19 2024.

 ----------------------------------------------------------------------
 #N Geom=AllCheck Guess=TCheck SCRF=Check GenChk RB3PW91/6-31+G(d,p) Fr
 eq
 ----------------------------------------------------------------------

 Structure from the checkpoint file:  "B3PW91D3PNAyang.chk"
 ----------
 [No Title]
 ----------
 Charge =  1 Multiplicity = 1

                         Standard orientation:
 ---------------------------------------------------------------------
 Center     Atomic      Atomic             Coordinates (Angstroms)
 Number     Number       Type             X           Y           Z
 ---------------------------------------------------------------------
      1          6           0       -0.057263    1.260187   -0.000068
      2          6           0        0.667653    0.035900   -0.000196
      3          6           0       -0.006762   -1.216542   -0.000129
      4          6           0       -1.371490   -1.237441   -0.000024
      5          6           0       -2.117968   -0.017553    0.000056
      6          6           0       -1.420601    1.231584    0.000034
      7          7           0       -3.451092   -0.043682    0.000151
      8          7           0        2.031300    0.107504   -0.000307
      9          8           0        2.667010   -1.095693    0.000187
     10          8           0        2.703283    1.115931    0.000112
     11          1           0        0.482281    2.201065   -0.000094
     12          1           0        0.555431   -2.142569   -0.000190
     13          1           0       -1.897874   -2.186818   -0.000008
     14          1           0       -1.983056    2.160077    0.000090
     15          1           0       -3.996862    0.806508    0.000209
     16          1           0       -3.963741   -0.914208    0.000168
     17          1           0        3.618605   -0.869524    0.000489
 ---------------------------------------------------------------------

 SCF Done:  E(RB3PW91) =  -492.317284928     A.U. after    1 cycles

 The electronic state is 1-A.
 Alpha  occ. eigenvalues --  -19.41146 -19.37549 -14.74824 -14.54755 -10.43568
 Alpha  occ. eigenvalues --  -10.41795 -10.38258 -10.38073 -10.36774 -10.36753
 Alpha  occ. eigenvalues --   -1.42585  -1.26438  -1.13954  -1.08285  -1.00578
 Alpha  occ. eigenvalues --   -0.95160  -0.89296  -0.83127  -0.80592  -0.75958
 Alpha  occ. eigenvalues --   -0.73981  -0.72283  -0.72214  -0.71067  -0.64981
 Alpha  occ. eigenvalues --   -0.62775  -0.61958  -0.61183  -0.59420  -0.58673
 Alpha  occ. eigenvalues --   -0.53755  -0.53355  -0.51608  -0.49992  -0.45178
 Alpha  occ. eigenvalues --   -0.40959
 Alpha virt. eigenvalues --   -0.29086  -0.19021  -0.16384  -0.12687  -0.11875
 Alpha virt. eigenvalues --   -0.09770  -0.09185  -0.08356  -0.06704  -0.06453
 Alpha virt. eigenvalues --   -0.05851  -0.04526  -0.04304  -0.03304  -0.02459

 Mulliken charges:
               1
     1  C    0.090656
     2  C   -0.675408
     3  C    0.303511
     4  C    0.080745
     5  C   -0.079228
     6  C    0.132962
     7  N   -0.532462
     8  N   -0.264568
     9  O   -0.030445
    10  O    0.038484
    11  H    0.220635
    12  H    0.219919
    13  H    0.190908
    14  H    0.192546
    15  H    0.356686
    16  H    0.356399
    17  H    0.398660
 Sum of Mulliken charges =   1.00000

 Dipole moment (field-independent basis, Debye):
    X=             -3.6256    Y=             -1.1145    Z=              0.0004  Tot=              3.7931
 Quadrupole moment (field-independent basis, Debye-Ang):
   XX=             -7.4605   YY=            -44.0901   ZZ=            -58.3512
   XY=             -4.7521   XZ=              0.0002   YZ=             -0.0004

  Exact polarizability: 193.473   5.219  87.326  -0.002   0.001  44.122
 Approx polarizability: 444.508  34.099 148.863  -0.009   0.002  64.047

                      1                      2                      3
                      A                      A                      A
 Frequencies --     94.5004               102.0907               227.0068
 Red. masses --      4.9252                 7.1640                 5.7479
 Frc consts  --      0.0259                 0.0440                 0.1745
 IR Inten    --      3.1158                 0.1834                 1.2199

                      4                      5                      6
                      A                      A                      A
 Frequencies --    258.5497               371.3466               393.8348
 Red. masses --      4.5542                 8.2882                 2.2793
 Frc consts  --      0.1794                 0.6734                 0.2083
 IR Inten    --      0.0888                 0.8989                19.8331

                      7                      8                      9
                      A                      A                      A
 Frequencies --    405.9046               446.4850               483.6304
 Red. masses --      3.1691                 1.2629                 2.0069
 Frc consts  --      0.3076                 0.1483                 0.2766
 IR Inten    --      0.1942               157.3082                 4.7496

                     10                     11                     12
                      A                      A                      A
 Frequencies --    533.1849               538.0679               556.7503
 Red. masses --      1.3247                 5.8436                 1.0653
 Frc consts  --      0.2219                 0.9968                 0.1945
 IR Inten    --    190.7528                11.4753                 0.2006

                     13                     14                     15
                      A                      A                      A
 Frequencies --    615.3212               628.0107               675.7893
 Red. masses --      5.9652                 6.8113                 4.9499
 Frc consts  --      1.3307                 1.5828                 1.3319
 IR Inten    --     29.4126                 4.6773                15.9134

                     16                     17                     18
                      A                      A                      A
 Frequencies --    728.8542               745.5029               809.9088
 Red. masses --      5.9914                 5.1803                 1.2776
 Frc consts  --      1.8752                 1.6963                 0.4938
 IR Inten    --      1.2613                 8.2718                 0.4328

                     19                     20                     21
                      A                      A                      A
 Frequencies --    844.7115               853.2386               988.9310
 Red. masses --      5.6999                 1.8437                 1.2863
 Frc consts  --      2.3962                 0.7908                 0.7412
 IR Inten    --     22.6210                70.3645                 0.1379

                     22                     23                     24
                      A                      A                      A
 Frequencies --    995.7109              1001.2722              1048.5717
 Red. masses --      1.3128                 3.0677                 1.7448
 Frc consts  --      0.7668                 1.8120                 1.1303
 IR Inten    --      0.1354                 1.8716                57.9178

                     25                     26                     27
                      A                      A                      A
 Frequencies --   1068.2177              1188.1505              1213.4142
 Red. masses --      3.2084                 1.2039                 1.2515
 Frc consts  --      2.1570                 1.0014                 1.0857
 IR Inten    --    203.3196                23.7968               440.8364

                     28                     29                     30
                      A                      A                      A
 Frequencies --   1284.1253              1352.0018              1400.5647
 Red. masses --      1.6666                 1.3473                 2.0446
 Frc consts  --      1.6192                 1.4510                 2.3630
 IR Inten    --    305.8583                24.2309                80.1595

                     31                     32                     33
                      A                      A                      A
 Frequencies --   1425.3580              1434.8017              1550.4180
 Red. masses --      2.9521                 4.1978                 5.0576
 Frc consts  --      3.5337                 5.0917                 7.1629
 IR Inten    --     18.8614                46.0649                79.7773

                     34                     35                     36
                      A                      A                      A
 Frequencies --   1562.4116              1577.8890              1663.2666
 Red. masses --      2.7080                 5.6184                 4.7347
 Frc consts  --      3.8949                 8.2417                 7.7174
 IR Inten    --     41.6798                 6.3674               871.0599

                     37                     38                     39
                      A                      A                      A
 Frequencies --   1689.8479              1725.6414              3221.3476
 Red. masses --      1.4909                 4.4346                 1.0918
 Frc consts  --      2.5084                 7.7805                 6.6752
 IR Inten    --    462.1771                58.5876                 0.2765

                     40                     41                     42
                      A                      A                      A
 Frequencies --   3221.4977              3246.1162              3257.6848
 Red. masses --      1.0921                 1.0962                 1.0955
 Frc consts  --      6.6780                 6.8055                 6.8498
 IR Inten    --      0.0264                10.2546                 8.4185

                     43                     44                     45
                      A                      A                      A
 Frequencies --   3599.7518              3694.6221              3724.2353
 Red. masses --      1.0478                 1.0664                 1.1057
 Frc consts  --      7.9997                 8.5767                 9.0355
 IR Inten    --    378.4745               380.7379                87.7410

 - Thermochemistry -
 -------------------
 Temperature   298.150 Kelvin.  Pressure   1.00000 Atm.
 Atom     1 has atomic number  6 and mass  12.00000

 Molecular mass:   139.05075 amu.
 Principal axes and moments of inertia in atomic units:
                           1         2         3
     Eigenvalues --   478.482652193.158212671.64083
           X            0.99998  -0.00612   0.00001
           Y            0.00612   0.99998   0.00000
           Z           -0.00001  -0.00000   1.00000
 This molecule is an asymmetric top.
 Rotational symmetry number  1.
 Warning -- assumption of classical behavior for rotation
           may cause significant error
 Rotational temperatures (Kelvin)      0.18102     0.03949     0.03242
 Rotational constants (GHZ):           3.77180     0.82290     0.67552
 Zero-point vibrational energy     349599.9 (Joules/Mol)
                                   83.55638 (Kcal/Mol)
 Warning -- explicit consideration of  13 degrees of freedom as
           vibrations may cause significant error
 Vibrational temperatures:    135.96   146.89   326.61   371.99   534.28
          (Kelvin)            566.64   584.01   642.39   695.84   767.13
                              774.16   801.04   885.31   903.57   972.31
                             1048.66  1072.61  1165.28  1215.35  1227.62
                             1422.85  1432.60  1440.61  1508.66  1536.93
                             1709.48  1745.83  1847.57  1945.23  2015.10
                             2050.77  2064.36  2230.70  2247.96  2270.23
                             2393.07  2431.31  2482.81  4634.79  4635.01
                             4670.43  4687.08  5179.23  5315.73  5358.34

 Zero-point correction=                           0.133156 (Hartree/Particle)
 Thermal correction to Energy=                    0.141590
 Thermal correction to Enthalpy=                  0.142534
 Thermal correction to Gibbs Free Energy=         0.099889
 Sum of electronic and zero-point Energies=           -492.184129
 Sum of electronic and thermal Energies=              -492.175695
 Sum of electronic and thermal Enthalpies=            -492.174751
 Sum of electronic and thermal Free Energies=         -492.217396

                     E (Thermal)             CV                S
                      KCal/Mol        Cal/Mol-Kelvin    Cal/Mol-Kelvin
 Total                   88.849             33.216             89.755
 Electronic               0.000              0.000              0.000
 Translational            0.889              2.981             40.701
 Rotational               0.889              2.981             29.418
 Vibrational             87.072             27.255             19.636
 Vibration     1          0.603              1.953              3.565
 Vibration     2          0.604              1.947              3.414
 Vibration     3          0.651              1.800              1.902
 Vibration     4          0.667              1.748              1.672
 Vibration     5          0.743              1.531              1.074
 Vibration     6          0.761              1.483              0.986
 Vibration     7          0.771              1.457              0.941
 Vibration     8          0.806              1.369              0.806
 Vibration     9          0.840              1.286              0.700
 Vibration    10          0.888              1.177              0.580
 Vibration    11          0.893              1.166              0.569
 Vibration    12          0.912              1.125              0.530
 Vibration    13          0.975              0.999              0.424

 Optimization completed.
    -- Stationary point found.
 Normal termination of Gaussian 09 at Thu Dec 19 11:03:57 2024.
