 Gaussian 09, Revision E.01,
 Gaussian 09:  ES64L-G09RevE.01 30-Nov-2015

 --------------------------------------------------------
 # opt freq cam-b3lyp/6-31+g(d,p) empiricaldispersion=gd3
 --------------------------------------------------------

 ----------
 [No Title]
 ----------
 Symbolic Z-matrix:
 Charge =  0 Multiplicity = 1

 SCF Done:  E(RCAM-B3LYP) =  -491.922106038     A.U. after   15 cycles
 SCF Done:  E(RCAM-B3LYP) =  -491.922223064     A.U. after   12 cycles
 SCF Done:  E(RCAM-B3LYP) =  -491.922108874     A.U. after   12 cycles
 SCF Done:  E(RCAM-B3LYP) =  -491.922230826     A.U. after   12 cycles
 SCF Done:  E(RCAM-B3LYP) =  -491.922233603     A.U. after   10 cycles
 Optimization completed.
    -- Stationary point found.
 Normal termination of Gaussian 09 at Tue Dec 17 19:34:17 2024.

 ----------------------------------------------------------------------
 #N Geom=AllCheck Guess=TCheck SCRF=Check GenChk RCAM-B3LYP/6-31+G(d,p)
  Freq
 ----------------------------------------------------------------------

 Structure from the checkpoint file:  "camb3lypD3PNA.chk"
 ----------
 [No Title]
 ----------
 Charge =  0 Multiplicity = 1

                         Standard orientation:
 ---------------------------------------------------------------------
 Center     Atomic      Atomic             Coordinates (Angstroms)
 Number     Number       Type             X           Y           Z
 ---------------------------------------------------------------------
      1          6           0       -0.021939   -1.211582    0.000035
      2          6           0       -0.707157    0.000000    0.000010
      3          6           0       -0.021939    1.211582   -0.000035
      4          6           0        1.359184    1.211136   -0.000054
      5          6           0        2.075158    0.000000   -0.000029
      6          6           0        1.359184   -1.211136    0.000017
      7          7           0        3.442619    0.000000   -0.000052
      8          7           0       -2.160268    0.000000    0.000028
      9          8           0       -2.736958    1.082613    0.000006
     10          8           0       -2.736958   -1.082613    0.000071
     11          1           0       -0.580746   -2.138893    0.000070
     12          1           0       -0.580746    2.138893   -0.000055
     13          1           0        1.898576    2.153103   -0.000090
     14          1           0        1.898576   -2.153103    0.000036
     15          1           0        3.962128   -0.860653   -0.000011
     16          1           0        3.962128    0.860653   -0.000062
 ---------------------------------------------------------------------

 SCF Done:  E(RCAM-B3LYP) =  -491.922233603     A.U. after    1 cycles

 The electronic state is 1-A.
 Alpha  occ. eigenvalues --  -19.25581 -19.25578 -14.65212 -14.45427 -10.34637
 Alpha  occ. eigenvalues --  -10.31881 -10.29841 -10.29840 -10.28828 -10.28828
 Alpha  occ. eigenvalues --   -1.31354  -1.13439  -1.04180  -0.96880  -0.88005
 Alpha  occ. eigenvalues --   -0.86118  -0.77555  -0.72546  -0.67939  -0.64015
 Alpha  occ. eigenvalues --   -0.62534  -0.61379  -0.60865  -0.57899  -0.53795
 Alpha  occ. eigenvalues --   -0.52995  -0.51804  -0.49199  -0.48894  -0.43578
 Alpha  occ. eigenvalues --   -0.41089  -0.37738  -0.37232  -0.35849  -0.33878
 Alpha  occ. eigenvalues --   -0.28812
 Alpha virt. eigenvalues --   -0.04087   0.01107   0.01228   0.03514   0.04093
 Alpha virt. eigenvalues --    0.05076   0.06305   0.06767   0.08834   0.09028
 Alpha virt. eigenvalues --    0.10281   0.10810   0.11492   0.12119   0.13753

 Mulliken charges:
               1
     1  C   -0.085652
     2  C   -0.190844
     3  C   -0.085653
     4  C   -0.030096
     5  C    0.273318
     6  C   -0.030096
     7  N   -0.679289
     8  N   -0.237522
     9  O   -0.082735
    10  O   -0.082734
    11  H    0.175917
    12  H    0.175917
    13  H    0.127653
    14  H    0.127653
    15  H    0.312081
    16  H    0.312081
 Sum of Mulliken charges =   0.00000

 Dipole moment (field-independent basis, Debye):
    X=              7.6023    Y=             -0.0000    Z=             -0.0000  Tot=              7.6023
 Quadrupole moment (field-independent basis, Debye-Ang):
   XX=            -57.5571   YY=            -53.2214   ZZ=            -60.8827
   XY=              0.0000   XZ=              0.0003   YZ=             -0.0002

  Exact polarizability: 146.475   0.000  97.934  -0.001  -0.001  50.011
 Approx polarizability: 163.501   0.000 136.992  -0.001  -0.002  62.218

 ******    1 imaginary frequencies (negative Signs) ******

                      1                      2                      3
                      A                      A                      A
 Frequencies --   -233.0317                68.4666               112.8232
 Red. masses --      1.2244                 7.7374                 5.8780
 Frc consts  --      0.0392                 0.0214                 0.0441
 IR Inten    --    241.1183                 0.0000                 0.0337

                      4                      5                      6
                      A                      A                      A
 Frequencies --    233.6363               293.3096               371.8042
 Red. masses --      6.4838                 5.6961                 9.5176
 Frc consts  --      0.2085                 0.2887                 0.7752
 IR Inten    --      0.2818                 3.1523                 0.0073

                      7                      8                      9
                      A                      A                      A
 Frequencies --    402.7022               403.9598               431.7508
 Red. masses --      3.1504                 1.0158                 3.0273
 Frc consts  --      0.3010                 0.0977                 0.3325
 IR Inten    --      0.8767                 0.0000                 0.0000

                     10                     11                     12
                      A                      A                      A
 Frequencies --    506.9575               545.0061               651.8940
 Red. masses --      2.6618                 6.7081                 7.0144
 Frc consts  --      0.4031                 1.1740                 1.7563
 IR Inten    --     18.6682                 2.9636                18.6124

                     13                     14                     15
                      A                      A                      A
 Frequencies --    653.4723               703.9959               766.8060
 Red. masses --      6.8435                 3.1161                 7.5248
 Frc consts  --      1.7218                 0.9099                 2.6068
 IR Inten    --      1.0760                12.2248                22.5197

                     16                     17                     18
                      A                      A                      A
 Frequencies --    835.7699               839.5606               865.9324
 Red. masses --      1.2585                 6.1426                 1.9354
 Frc consts  --      0.5179                 2.5510                 0.8551
 IR Inten    --      0.0000                 1.9047                48.3694

                     19                     20                     21
                      A                      A                      A
 Frequencies --    890.2924               997.9076              1006.3756
 Red. masses --      8.2441                 1.3183                 1.3376
 Frc consts  --      3.8500                 0.7735                 0.7981
 IR Inten    --     26.3965                 1.2243                 0.0000

                     22                     23                     24
                      A                      A                      A
 Frequencies --   1033.7963              1052.7834              1157.5150
 Red. masses --      2.7904                 1.3906                 2.3891
 Frc consts  --      1.7571                 0.9081                 1.8860
 IR Inten    --      2.5966                 0.0248               150.9491

                     25                     26                     27
                      A                      A                      A
 Frequencies --   1165.0728              1227.1539              1348.4397
 Red. masses --      1.1827                 1.3543                 1.3130
 Frc consts  --      0.9458                 1.2016                 1.4067
 IR Inten    --     15.8811                22.8025                 0.1339

                     28                     29                     30
                      A                      A                      A
 Frequencies --   1360.7934              1384.0183              1433.2075
 Red. masses --      3.0256                 7.8282                11.6308
 Frc consts  --      3.3010                 8.8348                14.0760
 IR Inten    --    189.0662                 0.7646               599.8630

                     31                     32                     33
                      A                      A                      A
 Frequencies --   1504.6146              1567.5061              1632.5455
 Red. masses --      3.3994                 2.6499                10.2585
 Frc consts  --      4.5343                 3.8361                16.1089
 IR Inten    --      1.6944                48.9620               148.8215

                     34                     35                     36
                      A                      A                      A
 Frequencies --   1667.6732              1689.7731              1693.7368
 Red. masses --      1.3609                 9.0826                 4.1106
 Frc consts  --      2.2300                15.2797                 6.9478
 IR Inten    --     32.6156               175.0093               441.8148

                     37                     38                     39
                      A                      A                      A
 Frequencies --   3211.9591              3212.7224              3260.8148
 Red. masses --      1.0913                 1.0911                 1.0937
 Frc consts  --      6.6336                 6.6353                 6.8517
 IR Inten    --      7.8971                11.3182                 1.0091

                     40                     41                     42
                      A                      A                      A
 Frequencies --   3261.1813              3660.7745              3787.0319
 Red. masses --      1.0943                 1.0460                 1.1053
 Frc consts  --      6.8572                 8.2588                 9.3399
 IR Inten    --      3.9597               124.9954                47.7321

 - Thermochemistry -
 -------------------
 Temperature   298.150 Kelvin.  Pressure   1.00000 Atm.
 Atom     1 has atomic number  6 and mass  12.00000

 Molecular mass:   138.04293 amu.
 Principal axes and moments of inertia in atomic units:
                           1         2         3
     Eigenvalues --   457.050332184.650702641.70102
           X            1.00000   0.00000   0.00001
           Y           -0.00000   1.00000   0.00003
           Z           -0.00001  -0.00003   1.00000
 This molecule is an asymmetric top.
 Rotational symmetry number  1.
 Warning -- assumption of classical behavior for rotation
           may cause significant error
 Rotational temperatures (Kelvin)      0.18951     0.03965     0.03279
 Rotational constants (GHZ):           3.94867     0.82610     0.68317
    1 imaginary frequencies ignored.
 Zero-point vibrational energy     316385.6 (Joules/Mol)
                                   75.61796 (Kcal/Mol)
 Warning -- explicit consideration of  10 degrees of freedom as
           vibrations may cause significant error
 Vibrational temperatures:     98.51   162.33   336.15   422.01   534.94
          (Kelvin)            579.40   581.21   621.19   729.40   784.14
                              937.93   940.20  1012.89  1103.26  1202.48
                             1207.94  1245.88  1280.93  1435.76  1447.95
                             1487.40  1514.72  1665.40  1676.28  1765.60
                             1940.10  1957.88  1991.29  2062.06  2164.80
                             2255.29  2348.87  2399.41  2431.20  2436.91
                             4621.29  4622.39  4691.58  4692.11  5267.03
                             5448.69

 Zero-point correction=                           0.120505 (Hartree/Particle)
 Thermal correction to Energy=                    0.128385
 Thermal correction to Enthalpy=                  0.129329
 Thermal correction to Gibbs Free Energy=         0.087368
 Sum of electronic and zero-point Energies=           -491.801729
 Sum of electronic and thermal Energies=              -491.793849
 Sum of electronic and thermal Enthalpies=            -491.792905
 Sum of electronic and thermal Free Energies=         -491.834865

                     E (Thermal)             CV                S
                      KCal/Mol        Cal/Mol-Kelvin    Cal/Mol-Kelvin
 Total                   80.563             30.019             88.313
 Electronic               0.000              0.000              0.000
 Translational            0.889              2.981             40.679
 Rotational               0.889              2.981             29.357
 Vibrational             78.785             24.057             18.277
 Vibration     1          0.598              1.969              4.197
 Vibration     2          0.607              1.939              3.220
 Vibration     3          0.654              1.789              1.851
 Vibration     4          0.688              1.686              1.455
 Vibration     5          0.744              1.530              1.072
 Vibration     6          0.768              1.464              0.953
 Vibration     7          0.769              1.462              0.948
 Vibration     8          0.793              1.401              0.853
 Vibration     9          0.862              1.235              0.641
 Vibration    10          0.900              1.151              0.555

 Optimization completed.
    -- Stationary point found.
 Normal termination of Gaussian 09 at Tue Dec 17 19:34:54 2024.
