 Gaussian 09, Revision E.01,
 Gaussian 09:  ES64L-G09RevE.01 30-Nov-2015

 --------------------------------------------------------
 # opt freq cam-b3lyp/6-31+g(d,p) empiricaldispersion=gd3
 --------------------------------------------------------

 ----------
 [No Title]
 ----------
 Symbolic Z-matrix:
 Charge =  1 Multiplicity = 1

 SCF Done:  E(RCAM-B3LYP) =  -492.263559944     A.U. after   16 cycles
 SCF Done:  E(RCAM-B3LYP) =  -492.263707805     A.U. after   12 cycles
 SCF Done:  E(RCAM-B3LYP) =  -492.263717605     A.U. after   11 cycles
 SCF Done:  E(RCAM-B3LYP) =  -492.263719062     A.U. after   10 cycles
 SCF Done:  E(RCAM-B3LYP) =  -492.263718981     A.U. after   10 cycles
 SCF Done:  E(RCAM-B3LYP) =  -492.263719393     A.U. after   10 cycles
 Optimization completed.
    -- Stationary point found.
 Normal termination of Gaussian 09 at Tue Dec 17 19:48:50 2024.

 ----------------------------------------------------------------------
 #N Geom=AllCheck Guess=TCheck SCRF=Check GenChk RCAM-B3LYP/6-31+G(d,p)
  Freq
 ----------------------------------------------------------------------

 Structure from the checkpoint file:  "camb3lypD3PNAyang.chk"
 ----------
 [No Title]
 ----------
 Charge =  1 Multiplicity = 1

                         Standard orientation:
 ---------------------------------------------------------------------
 Center     Atomic      Atomic             Coordinates (Angstroms)
 Number     Number       Type             X           Y           Z
 ---------------------------------------------------------------------
      1          6           0       -0.059197    1.260251    0.000003
      2          6           0        0.667113    0.036206    0.000001
      3          6           0       -0.008214   -1.216693    0.000002
      4          6           0       -1.367377   -1.237625    0.000006
      5          6           0       -2.112416   -0.017512    0.000009
      6          6           0       -1.417280    1.231813    0.000007
      7          7           0       -3.441906   -0.044358    0.000014
      8          7           0        2.023597    0.105886   -0.000003
      9          8           0        2.663330   -1.089507   -0.000018
     10          8           0        2.696730    1.110888   -0.000016
     11          1           0        0.481232    2.199668    0.000002
     12          1           0        0.555779   -2.140690   -0.000000
     13          1           0       -1.896854   -2.184070    0.000008
     14          1           0       -1.983009    2.157066    0.000010
     15          1           0       -3.987652    0.806299    0.000016
     16          1           0       -3.953430   -0.915987    0.000015
     17          1           0        3.615840   -0.862679   -0.000031
 ---------------------------------------------------------------------

 SCF Done:  E(RCAM-B3LYP) =  -492.263719393     A.U. after    1 cycles

 The electronic state is 1-A.
 Alpha  occ. eigenvalues --  -19.49739 -19.46132 -14.84230 -14.62790 -10.52485
 Alpha  occ. eigenvalues --  -10.50128 -10.46998 -10.46797 -10.45056 -10.45012
 Alpha  occ. eigenvalues --   -1.50956  -1.34297  -1.21752  -1.16373  -1.08406
 Alpha  occ. eigenvalues --   -1.02999  -0.96571  -0.90445  -0.87794  -0.82989
 Alpha  occ. eigenvalues --   -0.81099  -0.79896  -0.79120  -0.77722  -0.71918
 Alpha  occ. eigenvalues --   -0.69288  -0.68602  -0.67834  -0.65962  -0.65459
 Alpha  occ. eigenvalues --   -0.60459  -0.59510  -0.57606  -0.56651  -0.50648
 Alpha  occ. eigenvalues --   -0.45381
 Alpha virt. eigenvalues --   -0.24974  -0.13888  -0.11191  -0.10404  -0.09343
 Alpha virt. eigenvalues --   -0.07730  -0.06706  -0.05911  -0.04669  -0.04179
 Alpha virt. eigenvalues --   -0.02907  -0.01828  -0.01512  -0.01043  -0.00605

 Mulliken charges:
               1
     1  C   -0.066127
     2  C   -0.380938
     3  C    0.187688
     4  C   -0.005280
     5  C    0.299639
     6  C    0.018753
     7  N   -0.579919
     8  N   -0.320817
     9  O   -0.038430
    10  O    0.024925
    11  H    0.206345
    12  H    0.204641
    13  H    0.173089
    14  H    0.174910
    15  H    0.349715
    16  H    0.349380
    17  H    0.402424
 Sum of Mulliken charges =   1.00000

 Dipole moment (field-independent basis, Debye):
    X=             -3.4870    Y=             -1.1342    Z=              0.0000  Tot=              3.6669
 Quadrupole moment (field-independent basis, Debye-Ang):
   XX=             -8.9251   YY=            -44.9926   ZZ=            -58.7602
   XY=             -4.8231   XZ=             -0.0003   YZ=              0.0000

  Exact polarizability: 196.867   6.356  86.229  -0.001  -0.000  44.678
 Approx polarizability: 261.117  18.532 113.626  -0.001  -0.000  56.636

                      1                      2                      3
                      A                      A                      A
 Frequencies --     95.9830               106.5993               229.1617
 Red. masses --      4.9344                 7.2426                 5.7364
 Frc consts  --      0.0268                 0.0485                 0.1775
 IR Inten    --      2.9449                 0.0778                 1.1598

                      4                      5                      6
                      A                      A                      A
 Frequencies --    258.3648               375.1531               401.9345
 Red. masses --      4.5766                 8.2777                 2.3131
 Frc consts  --      0.1800                 0.6864                 0.2202
 IR Inten    --      0.1083                 2.1516                19.4864

                      7                      8                      9
                      A                      A                      A
 Frequencies --    409.6032               454.5867               489.5394
 Red. masses --      3.1293                 1.2803                 1.9742
 Frc consts  --      0.3093                 0.1559                 0.2787
 IR Inten    --      0.1445               163.3252                 1.2039

                     10                     11                     12
                      A                      A                      A
 Frequencies --    544.4482               559.6525               570.9994
 Red. masses --      5.8090                 1.3031                 1.0603
 Frc consts  --      1.0145                 0.2405                 0.2037
 IR Inten    --     11.0855               196.5164                 0.4988

                     13                     14                     15
                      A                      A                      A
 Frequencies --    623.8260               636.3599               691.3669
 Red. masses --      5.9434                 6.8394                 4.3798
 Frc consts  --      1.3627                 1.6318                 1.2335
 IR Inten    --     41.4698                 4.9041                13.7642

                     16                     17                     18
                      A                      A                      A
 Frequencies --    744.9005               756.0204               824.4745
 Red. masses --      6.3958                 5.0693                 1.2754
 Frc consts  --      2.0909                 1.7071                 0.5108
 IR Inten    --      4.5806                13.2960                 0.3798

                     19                     20                     21
                      A                      A                      A
 Frequencies --    850.5695               869.7641              1010.1187
 Red. masses --      5.6728                 1.8782                 2.9499
 Frc consts  --      2.4181                 0.8371                 1.7734
 IR Inten    --     42.6068                73.4753                 1.3982

                     22                     23                     24
                      A                      A                      A
 Frequencies --   1013.5207              1019.9643              1057.0758
 Red. masses --      1.2973                 1.3228                 1.5437
 Frc consts  --      0.7851                 0.8108                 1.0163
 IR Inten    --      0.0572                 0.0690                22.3793

                     25                     26                     27
                      A                      A                      A
 Frequencies --   1087.5579              1195.2724              1214.3113
 Red. masses --      4.3790                 1.1962                 1.2619
 Frc consts  --      3.0516                 1.0069                 1.0963
 IR Inten    --    247.4338                43.0688               680.8751

                     28                     29                     30
                      A                      A                      A
 Frequencies --   1294.4372              1364.3951              1412.3300
 Red. masses --      1.6293                 1.3577                 2.1071
 Frc consts  --      1.6085                 1.4891                 2.4763
 IR Inten    --    441.8327                33.1268               113.3202

                     31                     32                     33
                      A                      A                      A
 Frequencies --   1434.9391              1448.2977              1565.5585
 Red. masses --      3.4155                 3.6967                 4.6301
 Frc consts  --      4.1435                 4.5686                 6.6861
 IR Inten    --      3.5973               102.3105               149.9899

                     34                     35                     36
                      A                      A                      A
 Frequencies --   1578.0842              1601.4931              1667.8063
 Red. masses --      2.6423                 5.5518                 4.7166
 Frc consts  --      3.8769                 8.3894                 7.7299
 IR Inten    --     33.9909                12.1442              1445.2015

                     37                     38                     39
                      A                      A                      A
 Frequencies --   1699.6786              1746.0898              3233.1906
 Red. masses --      1.4810                 5.0222                 1.0921
 Frc consts  --      2.5208                 9.0214                 6.7265
 IR Inten    --    319.2117                66.8742                 0.3888

                     40                     41                     42
                      A                      A                      A
 Frequencies --   3233.7509              3256.9254              3268.5908
 Red. masses --      1.0930                 1.0969                 1.0961
 Frc consts  --      6.7340                 6.8551                 6.8997
 IR Inten    --      0.1772                12.1513                 9.7443

                     43                     44                     45
                      A                      A                      A
 Frequencies --   3601.9691              3694.1202              3722.9337
 Red. masses --      1.0477                 1.0664                 1.1060
 Frc consts  --      8.0089                 8.5745                 9.0319
 IR Inten    --    416.4663               410.7177                91.9141

 - Thermochemistry -
 -------------------
 Temperature   298.150 Kelvin.  Pressure   1.00000 Atm.
 Atom     1 has atomic number  6 and mass  12.00000

 Molecular mass:   139.05075 amu.
 Principal axes and moments of inertia in atomic units:
                           1         2         3
     Eigenvalues --   476.949812182.732462659.68227
           X            0.99998  -0.00609   0.00000
           Y            0.00609   0.99998  -0.00000
           Z           -0.00000   0.00000   1.00000
 This molecule is an asymmetric top.
 Rotational symmetry number  1.
 Warning -- assumption of classical behavior for rotation
           may cause significant error
 Rotational temperatures (Kelvin)      0.18160     0.03968     0.03257
 Rotational constants (GHZ):           3.78392     0.82683     0.67856
 Zero-point vibrational energy     352394.3 (Joules/Mol)
                                   84.22425 (Kcal/Mol)
 Warning -- explicit consideration of  12 degrees of freedom as
           vibrations may cause significant error
 Vibrational temperatures:    138.10   153.37   329.71   371.73   539.76
          (Kelvin)            578.29   589.33   654.05   704.34   783.34
                              805.21   821.54   897.55   915.58   994.72
                             1071.74  1087.74  1186.23  1223.78  1251.39
                             1453.33  1458.23  1467.50  1520.89  1564.75
                             1719.73  1747.12  1862.40  1963.06  2032.03
                             2064.55  2083.77  2252.49  2270.51  2304.19
                             2399.60  2445.46  2512.23  4651.83  4652.64
                             4685.98  4702.77  5182.42  5315.01  5356.46

 Zero-point correction=                           0.134220 (Hartree/Particle)
 Thermal correction to Energy=                    0.142535
 Thermal correction to Enthalpy=                  0.143479
 Thermal correction to Gibbs Free Energy=         0.101059
 Sum of electronic and zero-point Energies=           -492.129500
 Sum of electronic and thermal Energies=              -492.121185
 Sum of electronic and thermal Enthalpies=            -492.120241
 Sum of electronic and thermal Free Energies=         -492.162660

                     E (Thermal)             CV                S
                      KCal/Mol        Cal/Mol-Kelvin    Cal/Mol-Kelvin
 Total                   89.442             32.740             89.279
 Electronic               0.000              0.000              0.000
 Translational            0.889              2.981             40.701
 Rotational               0.889              2.981             29.406
 Vibrational             87.664             26.779             19.173
 Vibration     1          0.603              1.952              3.534
 Vibration     2          0.605              1.944              3.330
 Vibration     3          0.652              1.796              1.886
 Vibration     4          0.667              1.749              1.673
 Vibration     5          0.746              1.523              1.059
 Vibration     6          0.768              1.466              0.956
 Vibration     7          0.774              1.449              0.928
 Vibration     8          0.813              1.351              0.782
 Vibration     9          0.845              1.273              0.685
 Vibration    10          0.900              1.152              0.556
 Vibration    11          0.915              1.119              0.525
 Vibration    12          0.927              1.094              0.502

 Optimization completed.
    -- Stationary point found.
 Normal termination of Gaussian 09 at Tue Dec 17 19:49:38 2024.
