 Gaussian 09, Revision E.01,
 Gaussian 09:  ES64L-G09RevE.01 30-Nov-2015

 -----------------------------------------------------
 # opt freq pbepbe/6-31+g(d,p) empiricaldispersion=gd3
 -----------------------------------------------------

 ----------
 [No Title]
 ----------
 Symbolic Z-matrix:
 Charge =  1 Multiplicity = 1

 SCF Done:  E(RPBE-PBE) =  -491.953093337     A.U. after   18 cycles
 SCF Done:  E(RPBE-PBE) =  -491.954854613     A.U. after   13 cycles
 SCF Done:  E(RPBE-PBE) =  -491.954928441     A.U. after   12 cycles
 SCF Done:  E(RPBE-PBE) =  -491.954944781     A.U. after   11 cycles
 SCF Done:  E(RPBE-PBE) =  -491.954947049     A.U. after   10 cycles
 SCF Done:  E(RPBE-PBE) =  -491.954947627     A.U. after   10 cycles
 SCF Done:  E(RPBE-PBE) =  -491.954948015     A.U. after   10 cycles
 Optimization completed.
    -- Stationary point found.
 Normal termination of Gaussian 09 at Tue Dec 17 19:52:33 2024.

 ----------------------------------------------------------------------
 #N Geom=AllCheck Guess=TCheck SCRF=Check GenChk RPBEPBE/6-31+G(d,p) Fr
 eq
 ----------------------------------------------------------------------

 Structure from the checkpoint file:  "pbeD3PNAyang.chk"
 ----------
 [No Title]
 ----------
 Charge =  1 Multiplicity = 1

                         Standard orientation:
 ---------------------------------------------------------------------
 Center     Atomic      Atomic             Coordinates (Angstroms)
 Number     Number       Type             X           Y           Z
 ---------------------------------------------------------------------
      1          6           0       -0.059654    1.268164   -0.000004
      2          6           0        0.668082    0.038991   -0.000018
      3          6           0       -0.005432   -1.220150   -0.000011
      4          6           0       -1.380759   -1.242873    0.000003
      5          6           0       -2.131686   -0.018718    0.000014
      6          6           0       -1.433487    1.236850    0.000010
      7          7           0       -3.475701   -0.046768    0.000027
      8          7           0        2.045466    0.115375   -0.000032
      9          8           0        2.687319   -1.119653    0.000001
     10          8           0        2.725630    1.132518   -0.000004
     11          1           0        0.483482    2.215978   -0.000007
     12          1           0        0.563398   -2.151184   -0.000019
     13          1           0       -1.909212   -2.200317    0.000006
     14          1           0       -2.000915    2.171771    0.000018
     15          1           0       -4.026508    0.809954    0.000035
     16          1           0       -3.990878   -0.925341    0.000030
     17          1           0        3.646301   -0.877619    0.000020
 ---------------------------------------------------------------------

 SCF Done:  E(RPBE-PBE) =  -491.954948015     A.U. after    1 cycles

 The electronic state is 1-A.
 Alpha  occ. eigenvalues --  -19.03679 -19.00645 -14.40725 -14.22895 -10.15507
 Alpha  occ. eigenvalues --  -10.14273 -10.10457 -10.10322 -10.09410 -10.09407
 Alpha  occ. eigenvalues --   -1.30681  -1.15813  -1.04872  -0.99260  -0.92204
 Alpha  occ. eigenvalues --   -0.87067  -0.81881  -0.76049  -0.73732  -0.69464
 Alpha  occ. eigenvalues --   -0.67382  -0.66176  -0.65172  -0.65061  -0.58908
 Alpha  occ. eigenvalues --   -0.57400  -0.56443  -0.55650  -0.54152  -0.53726
 Alpha  occ. eigenvalues --   -0.48633  -0.47919  -0.47341  -0.44492  -0.41723
 Alpha  occ. eigenvalues --   -0.38184
 Alpha virt. eigenvalues --   -0.30962  -0.22009  -0.19567  -0.16402  -0.15065
 Alpha virt. eigenvalues --   -0.12576  -0.12183  -0.11814  -0.10252  -0.08980
 Alpha virt. eigenvalues --   -0.08761  -0.07658  -0.07170  -0.06092  -0.04938

 Mulliken charges:
               1
     1  C   -0.044033
     2  C   -0.505281
     3  C    0.232386
     4  C    0.017382
     5  C    0.194582
     6  C    0.047368
     7  N   -0.526652
     8  N   -0.371719
     9  O    0.005397
    10  O    0.090405
    11  H    0.207061
    12  H    0.207878
    13  H    0.179969
    14  H    0.181645
    15  H    0.349925
    16  H    0.349724
    17  H    0.383963
 Sum of Mulliken charges =   1.00000

 Dipole moment (field-independent basis, Debye):
    X=             -3.8499    Y=             -1.0171    Z=              0.0001  Tot=              3.9820
 Quadrupole moment (field-independent basis, Debye-Ang):
   XX=             -7.0371   YY=            -44.4243   ZZ=            -58.7441
   XY=             -4.4204   XZ=             -0.0002   YZ=              0.0000

  Exact polarizability: 198.393   3.763  92.102  -0.001   0.000  45.740
 Approx polarizability: 754.880  58.625 198.853  -0.004  -0.000  74.000

                      1                      2                      3
                      A                      A                      A
 Frequencies --     92.2178                96.5272               215.2972
 Red. masses --      5.1640                 6.6672                 5.7429
 Frc consts  --      0.0259                 0.0366                 0.1568
 IR Inten    --      2.3742                 1.0655                 1.1881

                      4                      5                      6
                      A                      A                      A
 Frequencies --    254.3358               358.7343               381.5472
 Red. masses --      4.6079                 8.2240                 2.2771
 Frc consts  --      0.1756                 0.6236                 0.1953
 IR Inten    --      0.1414                 0.7035                18.0658

                      7                      8                      9
                      A                      A                      A
 Frequencies --    386.8703               436.6202               471.5736
 Red. masses --      3.1171                 1.2893                 1.8602
 Frc consts  --      0.2749                 0.1448                 0.2437
 IR Inten    --      0.2592               150.9193                 5.9169

                     10                     11                     12
                      A                      A                      A
 Frequencies --    504.2235               513.1918               537.2387
 Red. masses --      1.3676                 5.9331                 1.0684
 Frc consts  --      0.2049                 0.9206                 0.1817
 IR Inten    --    175.0677                13.8128                 0.0865

                     13                     14                     15
                      A                      A                      A
 Frequencies --    583.7628               611.0209               635.6831
 Red. masses --      5.8949                 6.8322                 6.0837
 Frc consts  --      1.1836                 1.5029                 1.4484
 IR Inten    --     14.8371                 5.1025                13.6134

                     16                     17                     18
                      A                      A                      A
 Frequencies --    702.3408               707.0188               780.8204
 Red. masses --      4.9491                 5.5664                 1.2784
 Frc consts  --      1.4384                 1.6394                 0.4592
 IR Inten    --      0.0805                14.8165                 0.3120

                     19                     20                     21
                      A                      A                      A
 Frequencies --    822.0407               823.0533               947.8441
 Red. masses --      5.6041                 1.8323                 1.2982
 Frc consts  --      2.2312                 0.7313                 0.6872
 IR Inten    --     19.2886                62.8856                 0.0834

                     22                     23                     24
                      A                      A                      A
 Frequencies --    953.1244               967.8811               988.0576
 Red. masses --      1.2920                 4.2656                 3.2532
 Frc consts  --      0.6915                 2.3544                 1.8712
 IR Inten    --      0.2444                59.1411               181.6243

                     25                     26                     27
                      A                      A                      A
 Frequencies --   1020.3533              1143.1820              1170.7381
 Red. masses --      1.4840                 1.1890                 1.2439
 Frc consts  --      0.9103                 0.9155                 1.0045
 IR Inten    --     16.3806                21.9858               262.3791

                     28                     29                     30
                      A                      A                      A
 Frequencies --   1236.4549              1304.5265              1339.7148
 Red. masses --      1.7461                 1.3415                 2.1398
 Frc consts  --      1.5728                 1.3451                 2.2629
 IR Inten    --    210.7897                12.3422                52.4455

                     31                     32                     33
                      A                      A                      A
 Frequencies --   1373.4273              1394.5134              1503.6943
 Red. masses --      2.4451                 4.3206                 5.3860
 Frc consts  --      2.7174                 4.9503                 7.1752
 IR Inten    --     35.3972                19.8069                47.9832

                     34                     35                     36
                      A                      A                      A
 Frequencies --   1509.0441              1524.3960              1612.1605
 Red. masses --      2.7848                 5.9414                 4.5973
 Frc consts  --      3.7364                 8.1346                 7.0400
 IR Inten    --     31.3098                 5.6343               544.3228

                     37                     38                     39
                      A                      A                      A
 Frequencies --   1633.4328              1661.7946              3142.5568
 Red. masses --      1.5644                 4.0531                 1.0916
 Frc consts  --      2.4592                 6.5947                 6.3517
 IR Inten    --    401.7584                57.3154                 0.2520

                     40                     41                     42
                      A                      A                      A
 Frequencies --   3143.1585              3168.0655              3181.0270
 Red. masses --      1.0911                 1.0952                 1.0946
 Frc consts  --      6.3510                 6.4766                 6.5256
 IR Inten    --      0.0559                 9.0785                 8.0195

                     43                     44                     45
                      A                      A                      A
 Frequencies --   3502.4854              3555.3658              3623.7367
 Red. masses --      1.0475                 1.0663                 1.1053
 Frc consts  --      7.5709                 7.9417                 8.5513
 IR Inten    --    353.8818               317.7784                78.6104

 - Thermochemistry -
 -------------------
 Temperature   298.150 Kelvin.  Pressure   1.00000 Atm.
 Atom     1 has atomic number  6 and mass  12.00000

 Molecular mass:   139.05075 amu.
 Principal axes and moments of inertia in atomic units:
                           1         2         3
     Eigenvalues --   487.042192225.702262712.74444
           X            0.99998  -0.00612   0.00001
           Y            0.00612   0.99998  -0.00000
           Z           -0.00001   0.00000   1.00000
 This molecule is an asymmetric top.
 Rotational symmetry number  1.
 Warning -- assumption of classical behavior for rotation
           may cause significant error
 Rotational temperatures (Kelvin)      0.17784     0.03892     0.03193
 Rotational constants (GHZ):           3.70551     0.81086     0.66528
 Zero-point vibrational energy     338033.9 (Joules/Mol)
                                   80.79204 (Kcal/Mol)
 Warning -- explicit consideration of  14 degrees of freedom as
           vibrations may cause significant error
 Vibrational temperatures:    132.68   138.88   309.76   365.93   516.14
          (Kelvin)            548.96   556.62   628.20   678.49   725.46
                              738.37   772.97   839.90   879.12   914.61
                             1010.51  1017.24  1123.43  1182.73  1184.19
                             1363.73  1371.33  1392.56  1421.59  1468.06
                             1644.78  1684.43  1778.98  1876.92  1927.55
                             1976.05  2006.39  2163.48  2171.18  2193.26
                             2319.54  2350.14  2390.95  4521.43  4522.30
                             4558.13  4576.78  5039.29  5115.37  5213.74

 Zero-point correction=                           0.128750 (Hartree/Particle)
 Thermal correction to Energy=                    0.137479
 Thermal correction to Enthalpy=                  0.138423
 Thermal correction to Gibbs Free Energy=         0.095239
 Sum of electronic and zero-point Energies=           -491.826198
 Sum of electronic and thermal Energies=              -491.817469
 Sum of electronic and thermal Enthalpies=            -491.816525
 Sum of electronic and thermal Free Energies=         -491.859709

                     E (Thermal)             CV                S
                      KCal/Mol        Cal/Mol-Kelvin    Cal/Mol-Kelvin
 Total                   86.269             34.458             90.890
 Electronic               0.000              0.000              0.000
 Translational            0.889              2.981             40.701
 Rotational               0.889              2.981             29.465
 Vibrational             84.492             28.496             20.724
 Vibration     1          0.602              1.955              3.612
 Vibration     2          0.603              1.952              3.523
 Vibration     3          0.645              1.818              1.998
 Vibration     4          0.665              1.755              1.700
 Vibration     5          0.734              1.557              1.128
 Vibration     6          0.751              1.510              1.033
 Vibration     7          0.755              1.498              1.012
 Vibration     8          0.797              1.390              0.837
 Vibration     9          0.829              1.313              0.733
 Vibration    10          0.860              1.241              0.648
 Vibration    11          0.868              1.221              0.626
 Vibration    12          0.892              1.168              0.571
 Vibration    13          0.941              1.066              0.478
 Vibration    14          0.970              1.009              0.431

 Optimization completed.
    -- Stationary point found.
 Normal termination of Gaussian 09 at Tue Dec 17 19:53:13 2024.
