 Gaussian 09, Revision E.01,
 Gaussian 09:  ES64L-G09RevE.01 30-Nov-2015

 -----------------------------------------------------
 # opt freq pbepbe/6-31+g(d,p) empiricaldispersion=gd3
 -----------------------------------------------------

 ----------
 [No Title]
 ----------
 Symbolic Z-matrix:
 Charge =  0 Multiplicity = 1

 SCF Done:  E(RPBE-PBE) =  -491.604228906     A.U. after   16 cycles
 SCF Done:  E(RPBE-PBE) =  -491.605846572     A.U. after   12 cycles
 SCF Done:  E(RPBE-PBE) =  -491.605820780     A.U. after   12 cycles
 SCF Done:  E(RPBE-PBE) =  -491.605786262     A.U. after   12 cycles
 SCF Done:  E(RPBE-PBE) =  -491.605872678     A.U. after    7 cycles
 SCF Done:  E(RPBE-PBE) =  -491.605880834     A.U. after   11 cycles
 Optimization completed.
    -- Stationary point found.
 Normal termination of Gaussian 09 at Tue Dec 17 19:40:36 2024.

 ----------------------------------------------------------------------
 #N Geom=AllCheck Guess=TCheck SCRF=Check GenChk RPBEPBE/6-31+G(d,p) Fr
 eq
 ----------------------------------------------------------------------

 Structure from the checkpoint file:  "pbeD3PNA.chk"
 ----------
 [No Title]
 ----------
 Charge =  0 Multiplicity = 1

                         Standard orientation:
 ---------------------------------------------------------------------
 Center     Atomic      Atomic             Coordinates (Angstroms)
 Number     Number       Type             X           Y           Z
 ---------------------------------------------------------------------
      1          6           0       -0.020669   -1.222156    0.000038
      2          6           0       -0.714686   -0.000000    0.000016
      3          6           0       -0.020669    1.222156   -0.000033
      4          6           0        1.370802    1.222303   -0.000052
      5          6           0        2.094741    0.000000   -0.000026
      6          6           0        1.370802   -1.222303    0.000019
      7          7           0        3.467258    0.000000   -0.000047
      8          7           0       -2.175268    0.000000    0.000035
      9          8           0       -2.760224    1.102491   -0.000008
     10          8           0       -2.760224   -1.102491    0.000058
     11          1           0       -0.586926   -2.155791    0.000074
     12          1           0       -0.586926    2.155791   -0.000052
     13          1           0        1.914119    2.172773   -0.000087
     14          1           0        1.914119   -2.172773    0.000040
     15          1           0        3.991671   -0.867080   -0.000005
     16          1           0        3.991671    0.867080   -0.000057
 ---------------------------------------------------------------------

 SCF Done:  E(RPBE-PBE) =  -491.605880834     A.U. after    1 cycles

 The electronic state is 1-A.
 Alpha  occ. eigenvalues --  -18.79769 -18.79769 -14.21870 -14.06002  -9.98391
 Alpha  occ. eigenvalues --   -9.95748  -9.93544  -9.93544  -9.93170  -9.93170
 Alpha  occ. eigenvalues --   -1.11070  -0.94846  -0.87949  -0.80076  -0.72165
 Alpha  occ. eigenvalues --   -0.70362  -0.63054  -0.58461  -0.54459  -0.50676
 Alpha  occ. eigenvalues --   -0.50271  -0.48142  -0.46500  -0.44535  -0.41639
 Alpha  occ. eigenvalues --   -0.40887  -0.39851  -0.37627  -0.37250  -0.32548
 Alpha  occ. eigenvalues --   -0.30553  -0.26500  -0.25193  -0.25171  -0.22985
 Alpha  occ. eigenvalues --   -0.20965
 Alpha virt. eigenvalues --   -0.11203  -0.06322  -0.03478  -0.02830  -0.00561
 Alpha virt. eigenvalues --   -0.00286   0.02419   0.03004   0.04259   0.04603
 Alpha virt. eigenvalues --    0.06018   0.06685   0.07085   0.07289   0.08653

 Mulliken charges:
               1
     1  C   -0.043235
     2  C   -0.344227
     3  C   -0.043235
     4  C   -0.004261
     5  C    0.167814
     6  C   -0.004261
     7  N   -0.622112
     8  N   -0.303330
     9  O   -0.029500
    10  O   -0.029500
    11  H    0.178568
    12  H    0.178568
    13  H    0.135099
    14  H    0.135099
    15  H    0.314256
    16  H    0.314256
 Sum of Mulliken charges =  -0.00000

 Dipole moment (field-independent basis, Debye):
    X=              8.0657    Y=              0.0000    Z=             -0.0000  Tot=              8.0657
 Quadrupole moment (field-independent basis, Debye-Ang):
   XX=            -55.6402   YY=            -53.1814   ZZ=            -60.9149
   XY=             -0.0000   XZ=              0.0001   YZ=             -0.0002

  Exact polarizability: 170.191   0.000 102.690  -0.001  -0.002  51.637
 Approx polarizability: 388.471   0.000 241.429  -0.004  -0.005  82.948

 ******    1 imaginary frequencies (negative Signs) ******

                      1                      2                      3
                      A                      A                      A
 Frequencies --   -239.8424                70.1032               104.4810
 Red. masses --      1.2435                 7.6264                 5.7689
 Frc consts  --      0.0421                 0.0221                 0.0371
 IR Inten    --    214.1636                 0.0000                 0.0076

                      4                      5                      6
                      A                      A                      A
 Frequencies --    220.0317               275.9529               353.7295
 Red. masses --      6.4645                 5.4503                 9.4787
 Frc consts  --      0.1844                 0.2445                 0.6988
 IR Inten    --      0.1370                 4.2604                 0.0146

                      7                      8                      9
                      A                      A                      A
 Frequencies --    381.4414               403.5288               415.1355
 Red. masses --      3.0776                 1.4837                 1.5789
 Frc consts  --      0.2638                 0.1423                 0.1603
 IR Inten    --      1.0258                 0.0000                 0.0000

                     10                     11                     12
                      A                      A                      A
 Frequencies --    477.9486               521.5317               621.9048
 Red. masses --      2.6670                 6.8177                 7.1027
 Frc consts  --      0.3589                 1.0926                 1.6185
 IR Inten    --     19.7591                 2.2461                10.3452

                     13                     14                     15
                      A                      A                      A
 Frequencies --    624.4170               667.5998               720.6438
 Red. masses --      6.8297                 3.3905                 8.0033
 Frc consts  --      1.5689                 0.8903                 2.4488
 IR Inten    --      0.8758                12.8119                13.1326

                     16                     17                     18
                      A                      A                      A
 Frequencies --    783.2561               797.2342               810.7348
 Red. masses --      1.2614                 6.6374                 1.9133
 Frc consts  --      0.4559                 2.4855                 0.7410
 IR Inten    --      0.0000                 2.3728                43.8910

                     19                     20                     21
                      A                      A                      A
 Frequencies --    846.7040               931.9793               936.1185
 Red. masses --      7.2856                 1.2679                 1.3229
 Frc consts  --      3.0774                 0.6488                 0.6830
 IR Inten    --     16.4408                 2.1641                 0.0000

                     22                     23                     24
                      A                      A                      A
 Frequencies --    988.8133              1010.3229              1101.6725
 Red. masses --      2.8150                 1.4012                 2.4712
 Frc consts  --      1.6217                 0.8427                 1.7671
 IR Inten    --      1.4087                 0.1656               115.5116

                     25                     26                     27
                      A                      A                      A
 Frequencies --   1114.0829              1175.1497              1283.4461
 Red. masses --      1.1509                 1.3225                 1.3166
 Frc consts  --      0.8416                 1.0761                 1.2778
 IR Inten    --     16.8260                22.7424                 0.1486

                     28                     29                     30
                      A                      A                      A
 Frequencies --   1306.9125              1324.9175              1384.4273
 Red. masses --      7.6378                 3.2149                 6.4718
 Frc consts  --      7.6862                 3.3250                 7.3083
 IR Inten    --    758.5760                21.8793                 2.1771

                     31                     32                     33
                      A                      A                      A
 Frequencies --   1445.9761              1495.9903              1512.3853
 Red. masses --      4.1455                 2.8120                12.2009
 Frc consts  --      5.1068                 3.7078                16.4425
 IR Inten    --      3.5613                45.2322               185.2332

                     34                     35                     36
                      A                      A                      A
 Frequencies --   1589.1892              1603.9126              1626.8475
 Red. masses --      7.8616                 1.6767                 2.6876
 Frc consts  --     11.6980                 2.5413                 4.1909
 IR Inten    --     47.2519                 0.1054               420.6916

                     37                     38                     39
                      A                      A                      A
 Frequencies --   3118.1157              3118.7367              3165.8783
 Red. masses --      1.0899                 1.0897                 1.0923
 Frc consts  --      6.2436                 6.2447                 6.4501
 IR Inten    --     10.8396                13.1712                 0.0993

                     40                     41                     42
                      A                      A                      A
 Frequencies --   3166.0550              3556.0653              3682.8085
 Red. masses --      1.0929                 1.0457                 1.1046
 Frc consts  --      6.4545                 7.7908                 8.8272
 IR Inten    --      4.0650               120.4016                39.6534

 - Thermochemistry -
 -------------------
 Temperature   298.150 Kelvin.  Pressure   1.00000 Atm.
 Atom     1 has atomic number  6 and mass  12.00000

 Molecular mass:   138.04293 amu.
 Principal axes and moments of inertia in atomic units:
                           1         2         3
     Eigenvalues --   467.761422219.827162687.58858
           X            1.00000   0.00000   0.00001
           Y           -0.00000   1.00000   0.00003
           Z           -0.00001  -0.00003   1.00000
 This molecule is an asymmetric top.
 Rotational symmetry number  1.
 Warning -- assumption of classical behavior for rotation
           may cause significant error
 Rotational temperatures (Kelvin)      0.18517     0.03902     0.03223
 Rotational constants (GHZ):           3.85825     0.81301     0.67151
    1 imaginary frequencies ignored.
 Zero-point vibrational energy     303469.8 (Joules/Mol)
                                   72.53101 (Kcal/Mol)
 Warning -- explicit consideration of  10 degrees of freedom as
           vibrations may cause significant error
 Vibrational temperatures:    100.86   150.32   316.58   397.03   508.94
          (Kelvin)            548.81   580.59   597.29   687.66   750.37
                              894.78   898.40   960.53  1036.84  1126.93
                             1147.04  1166.47  1218.22  1340.91  1346.86
                             1422.68  1453.63  1585.06  1602.91  1690.78
                             1846.59  1880.35  1906.26  1991.88  2080.43
                             2152.39  2175.98  2286.49  2307.67  2340.67
                             4486.27  4487.16  4554.99  4555.24  5116.38
                             5298.73

 Zero-point correction=                           0.115586 (Hartree/Particle)
 Thermal correction to Energy=                    0.123786
 Thermal correction to Enthalpy=                  0.124730
 Thermal correction to Gibbs Free Energy=         0.082204
 Sum of electronic and zero-point Energies=           -491.490295
 Sum of electronic and thermal Energies=              -491.482095
 Sum of electronic and thermal Enthalpies=            -491.481150
 Sum of electronic and thermal Free Energies=         -491.523677

                     E (Thermal)             CV                S
                      KCal/Mol        Cal/Mol-Kelvin    Cal/Mol-Kelvin
 Total                   77.677             31.452             89.505
 Electronic               0.000              0.000              0.000
 Translational            0.889              2.981             40.679
 Rotational               0.889              2.981             29.413
 Vibrational             75.900             25.490             19.413
 Vibration     1          0.598              1.968              4.150
 Vibration     2          0.605              1.946              3.369
 Vibration     3          0.647              1.811              1.959
 Vibration     4          0.678              1.718              1.559
 Vibration     5          0.730              1.568              1.150
 Vibration     6          0.751              1.510              1.033
 Vibration     7          0.769              1.463              0.950
 Vibration     8          0.779              1.437              0.909
 Vibration     9          0.834              1.299              0.716
 Vibration    10          0.877              1.202              0.606

 Optimization completed.
    -- Stationary point found.
 Normal termination of Gaussian 09 at Tue Dec 17 19:41:07 2024.
