 Gaussian 09, Revision E.01,
 Gaussian 09:  ES64L-G09RevE.01 30-Nov-2015

 -----------------------------
 # opt freq m062x/6-311+g(d,p)
 -----------------------------

 ----------
 [No Title]
 ----------
 Symbolic Z-matrix:
 Charge =  1 Multiplicity = 1

 SCF Done:  E(RM062X) =  -492.385153888     A.U. after   16 cycles
 SCF Done:  E(RM062X) =  -492.386439611     A.U. after   12 cycles
 SCF Done:  E(RM062X) =  -492.386510851     A.U. after   12 cycles
 SCF Done:  E(RM062X) =  -492.386517121     A.U. after   11 cycles
 SCF Done:  E(RM062X) =  -492.386518131     A.U. after   10 cycles
 SCF Done:  E(RM062X) =  -492.386518195     A.U. after   10 cycles
 Optimization completed.
    -- Stationary point found.
 Normal termination of Gaussian 09 at Thu Jun 13 22:44:07 2024.

 ----------------------------------------------------------------------
 #N Geom=AllCheck Guess=TCheck SCRF=Check GenChk RM062X/6-311+G(d,p) Fr
 eq
 ----------------------------------------------------------------------

 Structure from the checkpoint file:  "m062x6311PNAyang.chk"
 ----------
 [No Title]
 ----------
 Charge =  1 Multiplicity = 1

                         Standard orientation:
 ---------------------------------------------------------------------
 Center     Atomic      Atomic             Coordinates (Angstroms)
 Number     Number       Type             X           Y           Z
 ---------------------------------------------------------------------
      1          6           0        0.058643    1.261154    0.000118
      2          6           0       -0.663250    0.037365    0.000318
      3          6           0        0.005637   -1.215773    0.000214
      4          6           0        1.364403   -1.238318    0.000047
      5          6           0        2.108813   -0.018472   -0.000084
      6          6           0        1.416048    1.231981   -0.000047
      7          7           0        3.436366   -0.045488   -0.000239
      8          7           0       -2.025287    0.107627    0.000497
      9          8           0       -2.656931   -1.082705   -0.000325
     10          8           0       -2.689647    1.102927   -0.000192
     11          1           0       -0.482747    2.199147    0.000158
     12          1           0       -0.561510   -2.136859    0.000315
     13          1           0        1.894706   -2.182716    0.000019
     14          1           0        1.984129    2.154216   -0.000142
     15          1           0        3.980461    0.805277   -0.000332
     16          1           0        3.946081   -0.917159   -0.000267
     17          1           0       -3.607810   -0.866280   -0.000810
 ---------------------------------------------------------------------

 SCF Done:  E(RM062X) =  -492.386518195     A.U. after    1 cycles

 The electronic state is 1-A.
 Alpha  occ. eigenvalues --  -19.89475 -19.86444 -15.18810 -14.96149 -10.80045
 Alpha  occ. eigenvalues --  -10.77902 -10.74579 -10.74406 -10.72632 -10.72632
 Alpha  occ. eigenvalues --   -1.56591  -1.39026  -1.24327  -1.18604  -1.10192
 Alpha  occ. eigenvalues --   -1.04503  -0.97950  -0.91526  -0.88798  -0.83922
 Alpha  occ. eigenvalues --   -0.82860  -0.81656  -0.79562  -0.78375  -0.73228
 Alpha  occ. eigenvalues --   -0.69197  -0.68821  -0.67962  -0.65695  -0.65686
 Alpha  occ. eigenvalues --   -0.61801  -0.59181  -0.58186  -0.57751  -0.50467
 Alpha  occ. eigenvalues --   -0.45053
 Alpha virt. eigenvalues --   -0.25692  -0.15298  -0.12256  -0.12006  -0.10958
 Alpha virt. eigenvalues --   -0.09554  -0.08443  -0.07740  -0.06675  -0.06420
 Alpha virt. eigenvalues --   -0.04627  -0.03933  -0.03354  -0.03222  -0.02363

 Mulliken charges:
               1
     1  C    0.200699
     2  C   -0.331967
     3  C   -0.001315
     4  C   -0.056733
     5  C   -0.076380
     6  C   -0.058279
     7  N   -0.357901
     8  N   -0.230779
     9  O    0.087112
    10  O    0.059425
    11  H    0.219627
    12  H    0.217494
    13  H    0.187799
    14  H    0.190159
    15  H    0.313344
    16  H    0.313237
    17  H    0.324458
 Sum of Mulliken charges =   1.00000

 Dipole moment (field-independent basis, Debye):
    X=              3.2459    Y=             -1.0802    Z=             -0.0006  Tot=              3.4209
 Quadrupole moment (field-independent basis, Debye-Ang):
   XX=             -8.3112   YY=            -44.6346   ZZ=            -59.0596
   XY=              4.6956   XZ=              0.0002   YZ=              0.0006

  Exact polarizability: 194.580  -6.932  85.585   0.001  -0.002  44.861
 Approx polarizability: 269.968 -19.793 116.169  -0.007  -0.003  59.316

                      1                      2                      3
                      A                      A                      A
 Frequencies --     93.9973               106.2939               231.0626
 Red. masses --      4.9373                 7.2929                 5.6670
 Frc consts  --      0.0257                 0.0485                 0.1783
 IR Inten    --      3.5896                 0.0361                 1.1340

                      4                      5                      6
                      A                      A                      A
 Frequencies --    249.5979               373.4307               390.3415
 Red. masses --      4.5757                 8.2377                 2.1928
 Frc consts  --      0.1680                 0.6768                 0.1969
 IR Inten    --      0.0033                 3.6039                28.2985

                      7                      8                      9
                      A                      A                      A
 Frequencies --    403.2839               432.5789               470.5453
 Red. masses --      3.0374                 1.2775                 2.2561
 Frc consts  --      0.2911                 0.1408                 0.2943
 IR Inten    --      0.2157               150.4030                 6.6598

                     10                     11                     12
                      A                      A                      A
 Frequencies --    543.0401               546.1971               565.4975
 Red. masses --      1.3027                 6.0602                 1.0590
 Frc consts  --      0.2263                 1.0652                 0.1995
 IR Inten    --    188.9141                 9.6797                 0.0522

                     13                     14                     15
                      A                      A                      A
 Frequencies --    629.4864               635.6531               684.8913
 Red. masses --      6.8199                 6.1046                 3.8499
 Frc consts  --      1.5922                 1.4533                 1.0640
 IR Inten    --      3.8532                43.6877                 8.4123

                     16                     17                     18
                      A                      A                      A
 Frequencies --    716.5050               766.7940               823.5033
 Red. masses --     11.6428                 4.8990                 1.2803
 Frc consts  --      3.5216                 1.6971                 0.5116
 IR Inten    --     10.7030                 6.1592                 1.3535

                     19                     20                     21
                      A                      A                      A
 Frequencies --    846.8477               858.7991               997.5256
 Red. masses --      5.7168                 1.7810                 1.2228
 Frc consts  --      2.4155                 0.7739                 0.7169
 IR Inten    --     44.5760                69.2806                 0.4816

                     22                     23                     24
                      A                      A                      A
 Frequencies --    999.9327              1012.7465              1046.4763
 Red. masses --      2.9275                 1.3175                 1.4704
 Frc consts  --      1.7246                 0.7962                 0.9487
 IR Inten    --      2.1351                 0.0000                 5.7536

                     25                     26                     27
                      A                      A                      A
 Frequencies --   1099.9197              1180.8399              1196.5131
 Red. masses --      4.9833                 1.1828                 1.2823
 Frc consts  --      3.5521                 0.9717                 1.0816
 IR Inten    --    212.7336                42.5362               785.3025

                     28                     29                     30
                      A                      A                      A
 Frequencies --   1283.2083              1350.3530              1409.4569
 Red. masses --      1.7273                 1.3411                 2.0870
 Frc consts  --      1.6758                 1.4409                 2.4427
 IR Inten    --    586.7063                37.1097               185.6892

                     31                     32                     33
                      A                      A                      A
 Frequencies --   1421.9527              1459.5821              1556.3809
 Red. masses --      3.7505                 2.9691                 4.7552
 Frc consts  --      4.4680                 3.7267                 6.7866
 IR Inten    --      0.5270                37.6456               136.0766

                     34                     35                     36
                      A                      A                      A
 Frequencies --   1566.5467              1589.5991              1658.2630
 Red. masses --      2.4984                 5.7503                 4.8002
 Frc consts  --      3.6124                 8.5609                 7.7771
 IR Inten    --     17.4859                21.5824              1282.3240

                     37                     38                     39
                      A                      A                      A
 Frequencies --   1689.4796              1748.6536              3204.9501
 Red. masses --      1.5387                 5.3136                 1.0931
 Frc consts  --      2.5878                 9.5729                 6.6153
 IR Inten    --    499.5108                95.7800                 1.6447

                     40                     41                     42
                      A                      A                      A
 Frequencies --   3213.7774              3225.9008              3244.6230
 Red. masses --      1.0902                 1.0988                 1.0959
 Frc consts  --      6.6342                 6.7369                 6.7973
 IR Inten    --      2.0575                14.2464                12.8439

                     43                     44                     45
                      A                      A                      A
 Frequencies --   3596.4563              3716.2870              3732.5603
 Red. masses --      1.0469                 1.1065                 1.0668
 Frc consts  --      7.9780                 9.0034                 8.7572
 IR Inten    --    446.6353               101.2377               444.4621

 - Thermochemistry -
 -------------------
 Temperature   298.150 Kelvin.  Pressure   1.00000 Atm.
 Atom     1 has atomic number  6 and mass  12.00000

 Molecular mass:   139.05075 amu.
 Principal axes and moments of inertia in atomic units:
                           1         2         3
     Eigenvalues --   475.111552175.068582650.18006
           X            0.99998   0.00613   0.00001
           Y           -0.00613   0.99998  -0.00000
           Z           -0.00001   0.00000   1.00000
 This molecule is an asymmetric top.
 Rotational symmetry number  1.
 Warning -- assumption of classical behavior for rotation
           may cause significant error
 Rotational temperatures (Kelvin)      0.18230     0.03982     0.03268
 Rotational constants (GHZ):           3.79856     0.82974     0.68099
 Zero-point vibrational energy     350328.4 (Joules/Mol)
                                   83.73049 (Kcal/Mol)
 Warning -- explicit consideration of  12 degrees of freedom as
           vibrations may cause significant error
 Vibrational temperatures:    135.24   152.93   332.45   359.12   537.28
          (Kelvin)            561.61   580.23   622.38   677.01   781.31
                              785.85   813.62   905.69   914.56   985.40
                             1030.89  1103.24  1184.84  1218.42  1235.62
                             1435.21  1438.68  1457.11  1505.64  1582.54
                             1698.96  1721.51  1846.25  1942.85  2027.89
                             2045.87  2100.01  2239.28  2253.91  2287.08
                             2385.87  2430.78  2515.92  4611.20  4623.90
                             4641.35  4668.28  5174.49  5346.90  5370.32

 Zero-point correction=                           0.133433 (Hartree/Particle)
 Thermal correction to Energy=                    0.141847
 Thermal correction to Enthalpy=                  0.142791
 Thermal correction to Gibbs Free Energy=         0.100197
 Sum of electronic and zero-point Energies=           -492.253085
 Sum of electronic and thermal Energies=              -492.244671
 Sum of electronic and thermal Enthalpies=            -492.243727
 Sum of electronic and thermal Free Energies=         -492.286321

                     E (Thermal)             CV                S
                      KCal/Mol        Cal/Mol-Kelvin    Cal/Mol-Kelvin
 Total                   89.010             33.069             89.647
 Electronic               0.000              0.000              0.000
 Translational            0.889              2.981             40.701
 Rotational               0.889              2.981             29.395
 Vibrational             87.233             27.107             19.551
 Vibration     1          0.603              1.953              3.575
 Vibration     2          0.605              1.944              3.336
 Vibration     3          0.653              1.794              1.871
 Vibration     4          0.662              1.763              1.733
 Vibration     5          0.745              1.527              1.066
 Vibration     6          0.758              1.491              0.999
 Vibration     7          0.769              1.463              0.951
 Vibration     8          0.793              1.399              0.850
 Vibration     9          0.828              1.315              0.736
 Vibration    10          0.898              1.155              0.559
 Vibration    11          0.901              1.148              0.552
 Vibration    12          0.921              1.106              0.513

 Optimization completed.
    -- Stationary point found.
 Normal termination of Gaussian 09 at Thu Jun 13 22:46:34 2024.
