 Gaussian 09, Revision E.01,
 Gaussian 09:  ES64L-G09RevE.01 30-Nov-2015

 -----------------------------
 # opt freq m062x/6-311+g(d,p)
 -----------------------------

 ----------
 [No Title]
 ----------
 Symbolic Z-matrix:
 Charge =  0 Multiplicity = 1

 SCF Done:  E(RM062X) =  -492.045900281     A.U. after   14 cycles
 SCF Done:  E(RM062X) =  -492.047320820     A.U. after   13 cycles
 SCF Done:  E(RM062X) =  -492.045169153     A.U. after   14 cycles
 SCF Done:  E(RM062X) =  -492.047360857     A.U. after   10 cycles
 SCF Done:  E(RM062X) =  -492.047436941     A.U. after   12 cycles
 SCF Done:  E(RM062X) =  -492.047441197     A.U. after   10 cycles
 Optimization completed.
    -- Stationary point found.
 Normal termination of Gaussian 09 at Thu Jun 13 22:20:59 2024.

 ----------------------------------------------------------------------
 #N Geom=AllCheck Guess=TCheck SCRF=Check GenChk RM062X/6-311+G(d,p) Fr
 eq
 ----------------------------------------------------------------------

 Structure from the checkpoint file:  "m062x6311PNA.chk"
 ----------
 [No Title]
 ----------
 Charge =  0 Multiplicity = 1

                         Standard orientation:
 ---------------------------------------------------------------------
 Center     Atomic      Atomic             Coordinates (Angstroms)
 Number     Number       Type             X           Y           Z
 ---------------------------------------------------------------------
      1          6           0        0.022344   -1.211646    0.000042
      2          6           0        0.703358    0.000001    0.000092
      3          6           0        0.022344    1.211647    0.000112
      4          6           0       -1.358225    1.211213    0.000084
      5          6           0       -2.072822    0.000000    0.000035
      6          6           0       -1.358225   -1.211213    0.000014
      7          7           0       -3.438701   -0.000000    0.000011
      8          7           0        2.165342    0.000000    0.000125
      9          8           0        2.731619    1.074818   -0.000181
     10          8           0        2.731617   -1.074820   -0.000250
     11          1           0        0.583011   -2.136761    0.000024
     12          1           0        0.583010    2.136762    0.000148
     13          1           0       -1.899398    2.150294    0.000099
     14          1           0       -1.899397   -2.150294   -0.000026
     15          1           0       -3.956124   -0.860494   -0.000039
     16          1           0       -3.956125    0.860493    0.000015
 ---------------------------------------------------------------------

 SCF Done:  E(RM062X) =  -492.047441197     A.U. after    1 cycles

 The electronic state is 1-A.
 Alpha  occ. eigenvalues --  -19.65204 -19.65200 -14.99422 -14.78681 -10.62293
 Alpha  occ. eigenvalues --  -10.59776 -10.57480 -10.57478 -10.56511 -10.56510
 Alpha  occ. eigenvalues --   -1.36751  -1.17907  -1.06732  -0.98919  -0.89578
 Alpha  occ. eigenvalues --   -0.87627  -0.78826  -0.73373  -0.68968  -0.65266
 Alpha  occ. eigenvalues --   -0.63079  -0.62317  -0.62195  -0.59431  -0.54039
 Alpha  occ. eigenvalues --   -0.52993  -0.51843  -0.49193  -0.49097  -0.43228
 Alpha  occ. eigenvalues --   -0.41291  -0.38648  -0.37479  -0.37449  -0.33747
 Alpha  occ. eigenvalues --   -0.28584
 Alpha virt. eigenvalues --   -0.04487  -0.00531  -0.00349   0.01367   0.02128
 Alpha virt. eigenvalues --    0.03958   0.04199   0.04492   0.06598   0.06865
 Alpha virt. eigenvalues --    0.08094   0.08547   0.09267   0.09661   0.11464

 Mulliken charges:
               1
     1  C    0.005925
     2  C   -0.205550
     3  C    0.005927
     4  C   -0.056863
     5  C   -0.205723
     6  C   -0.056863
     7  N   -0.443120
     8  N   -0.202435
     9  O   -0.031840
    10  O   -0.031841
    11  H    0.193955
    12  H    0.193955
    13  H    0.147295
    14  H    0.147295
    15  H    0.269942
    16  H    0.269942
 Sum of Mulliken charges =  -0.00000

 Dipole moment (field-independent basis, Debye):
    X=             -7.4804    Y=              0.0000    Z=              0.0007  Tot=              7.4804
 Quadrupole moment (field-independent basis, Debye-Ang):
   XX=            -56.9512   YY=            -52.6996   ZZ=            -61.0952
   XY=              0.0000   XZ=              0.0027   YZ=              0.0002

  Exact polarizability: 141.985  -0.002  96.706  -0.001   0.002  49.473
 Approx polarizability: 166.316   0.000 140.072  -0.002   0.002  64.482

 ******    1 imaginary frequencies (negative Signs) ******

                      1                      2                      3
                      A                      A                      A
 Frequencies --   -306.8131                61.7608               109.3992
 Red. masses --      1.2335                 7.7932                 5.8969
 Frc consts  --      0.0684                 0.0175                 0.0416
 IR Inten    --    228.7572                 0.0000                 0.0127

                      4                      5                      6
                      A                      A                      A
 Frequencies --    231.2244               285.2908               370.0207
 Red. masses --      6.4021                 5.6367                 9.4722
 Frc consts  --      0.2017                 0.2703                 0.7641
 IR Inten    --      0.2971                 2.3894                 0.0562

                      7                      8                      9
                      A                      A                      A
 Frequencies --    395.1539               397.6782               422.5506
 Red. masses --      3.0546                 1.0127                 3.1097
 Frc consts  --      0.2810                 0.0944                 0.3271
 IR Inten    --      0.9969                 0.0000                 0.0000

                     10                     11                     12
                      A                      A                      A
 Frequencies --    486.1749               546.6119               645.6890
 Red. masses --      2.8168                 7.0659                 6.8387
 Frc consts  --      0.3923                 1.2439                 1.6799
 IR Inten    --     22.9914                 3.0796                 0.9523

                     13                     14                     15
                      A                      A                      A
 Frequencies --    651.9545               683.8832               733.1916
 Red. masses --      6.8113                 3.2491                10.4259
 Frc consts  --      1.7058                 0.8953                 3.3021
 IR Inten    --     16.8079                 7.6462                21.5038

                     16                     17                     18
                      A                      A                      A
 Frequencies --    832.9993               843.1972               852.4968
 Red. masses --      1.2579                 5.5724                 1.8231
 Frc consts  --      0.5143                 2.3343                 0.7806
 IR Inten    --      0.0000                 0.3451                52.6095

                     19                     20                     21
                      A                      A                      A
 Frequencies --    903.2450               983.2700              1001.5087
 Red. masses --      9.6613                 1.2466                 1.3272
 Frc consts  --      4.6441                 0.7101                 0.7843
 IR Inten    --     38.3014                 2.5368                 0.0000

                     22                     23                     24
                      A                      A                      A
 Frequencies --   1025.4563              1042.7451              1149.4514
 Red. masses --      2.7689                 1.3875                 1.1647
 Frc consts  --      1.7155                 0.8889                 0.9066
 IR Inten    --      4.0499                 0.0106                15.6172

                     25                     26                     27
                      A                      A                      A
 Frequencies --   1152.2847              1214.8086              1333.4906
 Red. masses --      2.0667                 1.4380                 1.2977
 Frc consts  --      1.6168                 1.2503                 1.3596
 IR Inten    --    149.2828                 9.2008                 0.2015

                     28                     29                     30
                      A                      A                      A
 Frequencies --   1352.7979              1376.2082              1454.1176
 Red. masses --      3.0311                 8.0939                12.4383
 Frc consts  --      3.2682                 9.0319                15.4956
 IR Inten    --    171.6839                 0.3128               613.4553

                     31                     32                     33
                      A                      A                      A
 Frequencies --   1496.7630              1555.1377              1648.3021
 Red. masses --      3.6124                 2.6698                 8.9082
 Frc consts  --      4.7681                 3.8042                14.2599
 IR Inten    --      0.9375                54.6909                76.4631

                     34                     35                     36
                      A                      A                      A
 Frequencies --   1652.2538              1686.0734              1710.3168
 Red. masses --      1.3057                 5.2112                11.1944
 Frc consts  --      2.1001                 8.7285                19.2933
 IR Inten    --     78.8975               356.2418               297.3529

                     37                     38                     39
                      A                      A                      A
 Frequencies --   3193.3550              3193.6047              3236.2913
 Red. masses --      1.0914                 1.0910                 1.0945
 Frc consts  --      6.5572                 6.5561                 6.7541
 IR Inten    --      3.4683                 6.9923                 5.2581

                     40                     41                     42
                      A                      A                      A
 Frequencies --   3236.2936              3667.8185              3794.0256
 Red. masses --      1.0939                 1.0452                 1.1058
 Frc consts  --      6.7505                 8.2846                 9.3786
 IR Inten    --      3.2632               135.5223                55.1178

 - Thermochemistry -
 -------------------
 Temperature   298.150 Kelvin.  Pressure   1.00000 Atm.
 Atom     1 has atomic number  6 and mass  12.00000

 Molecular mass:   138.04293 amu.
 Principal axes and moments of inertia in atomic units:
                           1         2         3
     Eigenvalues --   455.004182179.904502634.90867
           X            1.00000   0.00000   0.00003
           Y            0.00000   1.00000  -0.00003
           Z           -0.00003   0.00003   1.00000
 This molecule is an asymmetric top.
 Rotational symmetry number  1.
 Warning -- assumption of classical behavior for rotation
           may cause significant error
 Rotational temperatures (Kelvin)      0.19036     0.03973     0.03287
 Rotational constants (GHZ):           3.96643     0.82790     0.68494
    1 imaginary frequencies ignored.
 Zero-point vibrational energy     314671.1 (Joules/Mol)
                                   75.20819 (Kcal/Mol)
 Warning -- explicit consideration of  10 degrees of freedom as
           vibrations may cause significant error
 Vibrational temperatures:     88.86   157.40   332.68   410.47   532.38
          (Kelvin)            568.54   572.17   607.96   699.50   786.45
                              929.00   938.02   983.95  1054.90  1198.50
                             1213.17  1226.55  1299.57  1414.70  1440.95
                             1475.40  1500.28  1653.80  1657.88  1747.84
                             1918.59  1946.37  1980.05  2092.15  2153.51
                             2237.49  2371.54  2377.22  2425.88  2460.76
                             4594.52  4594.88  4656.30  4656.30  5277.17
                             5458.75

 Zero-point correction=                           0.119852 (Hartree/Particle)
 Thermal correction to Energy=                    0.127836
 Thermal correction to Enthalpy=                  0.128780
 Thermal correction to Gibbs Free Energy=         0.086559
 Sum of electronic and zero-point Energies=           -491.927589
 Sum of electronic and thermal Energies=              -491.919606
 Sum of electronic and thermal Enthalpies=            -491.918661
 Sum of electronic and thermal Free Energies=         -491.960882

                     E (Thermal)             CV                S
                      KCal/Mol        Cal/Mol-Kelvin    Cal/Mol-Kelvin
 Total                   80.218             30.327             88.862
 Electronic               0.000              0.000              0.000
 Translational            0.889              2.981             40.679
 Rotational               0.889              2.981             29.348
 Vibrational             78.441             24.366             18.835
 Vibration     1          0.597              1.973              4.400
 Vibration     2          0.606              1.942              3.280
 Vibration     3          0.653              1.793              1.869
 Vibration     4          0.683              1.701              1.502
 Vibration     5          0.742              1.534              1.080
 Vibration     6          0.762              1.481              0.981
 Vibration     7          0.764              1.475              0.971
 Vibration     8          0.785              1.421              0.883
 Vibration     9          0.842              1.281              0.694
 Vibration    10          0.902              1.147              0.551

 Optimization completed.
    -- Stationary point found.
 Normal termination of Gaussian 09 at Thu Jun 13 22:23:15 2024.
