 Gaussian 09, Revision E.01,
 Gaussian 09:  ES64L-G09RevE.01 30-Nov-2015

 ---------------------------
 # opt freq apfd/6-31+g(d,p)
 ---------------------------

 ----------
 [No Title]
 ----------
 Symbolic Z-matrix:
 Charge =  0 Multiplicity = 1

 SCF Done:  E(RAPFD) =  -801.888515547     A.U. after   16 cycles
 SCF Done:  E(RAPFD) =  -801.888870931     A.U. after   12 cycles
 SCF Done:  E(RAPFD) =  -801.888900995     A.U. after   11 cycles
 SCF Done:  E(RAPFD) =  -801.888917704     A.U. after   11 cycles
 SCF Done:  E(RAPFD) =  -801.888913940     A.U. after   11 cycles
 SCF Done:  E(RAPFD) =  -801.888922463     A.U. after   10 cycles
 SCF Done:  E(RAPFD) =  -801.888922899     A.U. after    9 cycles
 SCF Done:  E(RAPFD) =  -801.866285236     A.U. after   14 cycles
 SCF Done:  E(RAPFD) =  -801.888922900     A.U. after    5 cycles
 Optimization completed.
    -- Stationary point found.
 Normal termination of Gaussian 09 at Sun May 19 22:45:03 2024.

 ----------------------------------------------------------------------
 #N Geom=AllCheck Guess=TCheck SCRF=Check GenChk RAPFD/6-31+G(d,p) Freq
 ----------------------------------------------------------------------

 Structure from the checkpoint file:  "lwAPFDSA.chk"
 ----------
 [No Title]
 ----------
 Charge =  0 Multiplicity = 1

                         Standard orientation:
 ---------------------------------------------------------------------
 Center     Atomic      Atomic             Coordinates (Angstroms)
 Number     Number       Type             X           Y           Z
 ---------------------------------------------------------------------
      1          6           0       -2.273517   -0.114847   -0.001945
      2          6           0       -1.689775    1.173562   -0.000112
      3          6           0       -0.309645    1.331062    0.000607
      4          6           0        0.533039    0.205378   -0.000332
      5          6           0       -0.042624   -1.063744   -0.001512
      6          6           0       -1.426785   -1.239165   -0.001983
      7          8           0       -3.634764   -0.117811   -0.003576
      8          8           0       -2.588496    2.186788    0.000314
      9          6           0       -2.092464    3.509169    0.001724
     10          8           0       -1.794359   -2.560061   -0.002702
     11          6           0       -3.133768   -2.996853    0.006479
     12          6           0        1.971262    0.424382    0.000210
     13          6           0        2.947867   -0.502805   -0.000549
     14          6           0        4.352369   -0.074504    0.000244
     15          8           0        5.191621   -1.140709   -0.000704
     16          8           0        4.763983    1.071816    0.001561
     17          1           0        0.130938    2.321663    0.001687
     18          1           0        0.563627   -1.963185   -0.001744
     19          1           0       -3.975591   -1.014145   -0.008206
     20          1           0       -2.971077    4.154844    0.001842
     21          1           0       -1.492858    3.712269    0.898317
     22          1           0       -1.491951    3.713825   -0.893908
     23          1           0       -3.087520   -4.087007    0.009141
     24          1           0       -3.667145   -2.686140    0.916622
     25          1           0       -3.677883   -2.691909   -0.899407
     26          1           0        2.298901    1.464446    0.001382
     27          1           0        2.758972   -1.571596   -0.001737
     28          1           0        6.091952   -0.783059   -0.000116
 ---------------------------------------------------------------------

 SCF Done:  E(RAPFD) =  -801.888922900     A.U. after    1 cycles

 The electronic state is 1-A.
 Alpha  occ. eigenvalues --  -19.24724 -19.24192 -19.24065 -19.23718 -19.17887
 Alpha  occ. eigenvalues --  -10.34160 -10.29410 -10.29348 -10.29299 -10.28687
 Alpha  occ. eigenvalues --  -10.26940 -10.24079 -10.23691 -10.22480 -10.22398
 Alpha  occ. eigenvalues --  -10.22201  -1.12478  -1.11919  -1.10546  -1.08829
 Alpha  occ. eigenvalues --   -1.03055  -0.89108  -0.82959  -0.79906  -0.77782
 Alpha  occ. eigenvalues --   -0.73280  -0.72363  -0.69150  -0.64752  -0.62959
 Alpha  occ. eigenvalues --   -0.58598  -0.56933  -0.55101  -0.53558  -0.52115
 Alpha  occ. eigenvalues --   -0.50901  -0.50658  -0.49004  -0.48890  -0.47772
 Alpha  occ. eigenvalues --   -0.46513  -0.45585  -0.44393  -0.43703  -0.42966
 Alpha  occ. eigenvalues --   -0.41673  -0.41088  -0.39302  -0.38804  -0.37809
 Alpha  occ. eigenvalues --   -0.36869  -0.35455  -0.34944  -0.34746  -0.32850
 Alpha  occ. eigenvalues --   -0.28706  -0.28401  -0.23912  -0.22190
 Alpha virt. eigenvalues --   -0.06844  -0.00296  -0.00243   0.01416   0.01943
 Alpha virt. eigenvalues --    0.02163   0.02305   0.02967   0.04085   0.04762
 Alpha virt. eigenvalues --    0.04808   0.05644   0.05917   0.06983   0.07330

 Mulliken charges:
               1
     1  C   -0.096594
     2  C    0.018233
     3  C    0.234687
     4  C   -0.237116
     5  C   -0.402184
     6  C    0.225624
     7  O   -0.507773
     8  O   -0.313887
     9  C   -0.158240
    10  O   -0.323567
    11  C   -0.212184
    12  C    0.216365
    13  C   -0.596895
    14  C    0.723461
    15  O   -0.450049
    16  O   -0.501985
    17  H    0.154061
    18  H    0.152035
    19  H    0.361140
    20  H    0.169822
    21  H    0.161926
    22  H    0.161926
    23  H    0.184377
    24  H    0.161965
    25  H    0.160654
    26  H    0.177223
    27  H    0.160843
    28  H    0.376134
 Sum of Mulliken charges =   0.00000

 Dipole moment (field-independent basis, Debye):
    X=             -3.6520    Y=             -1.7153    Z=              0.0068  Tot=              4.0348
 Quadrupole moment (field-independent basis, Debye-Ang):
   XX=            -90.5766   YY=            -79.6882   ZZ=            -96.0648
   XY=              3.1388   XZ=             -0.0150   YZ=             -0.0227

  Exact polarizability: 252.296  -2.294 169.843   0.021   0.034  84.418
 Approx polarizability: 351.505 -11.566 251.641   0.065   0.106 123.298

 ******    1 imaginary frequencies (negative Signs) ******

                      1                      2                      3
                      A                      A                      A
 Frequencies --   -122.7692                26.4014                62.4004
 Red. masses --      2.3500                 6.6588                 6.1598
 Frc consts  --      0.0209                 0.0027                 0.0141
 IR Inten    --      0.2968                 1.7223                 0.0089

                      4                      5                      6
                      A                      A                      A
 Frequencies --     72.0091                76.0867               115.3661
 Red. masses --      5.9946                 3.3875                 1.4742
 Frc consts  --      0.0183                 0.0116                 0.0116
 IR Inten    --      0.1414                 0.8081                58.7016

                      7                      8                      9
                      A                      A                      A
 Frequencies --    133.9988               149.3158               190.7360
 Red. masses --      2.8437                 4.5197                 4.6394
 Frc consts  --      0.0301                 0.0594                 0.0994
 IR Inten    --     19.1781                 0.7750                 4.1025

                     10                     11                     12
                      A                      A                      A
 Frequencies --    206.1920               218.2204               248.5395
 Red. masses --      5.2827                 2.3605                 2.3242
 Frc consts  --      0.1323                 0.0662                 0.0846
 IR Inten    --      1.0381                 1.7985                 0.0806

                     13                     14                     15
                      A                      A                      A
 Frequencies --    261.2537               300.7448               325.1986
 Red. masses --      4.6190                 1.6425                 1.0744
 Frc consts  --      0.1857                 0.0875                 0.0669
 IR Inten    --      0.1899                 0.4904                10.4903

                     16                     17                     18
                      A                      A                      A
 Frequencies --    329.4846               345.2939               393.0230
 Red. masses --      4.3330                 5.6572                 4.5918
 Frc consts  --      0.2771                 0.3974                 0.4179
 IR Inten    --      4.5304                 1.1868                 0.7433

                     19                     20                     21
                      A                      A                      A
 Frequencies --    409.9230               471.0233               496.9507
 Red. masses --      4.3555                 6.0794                 6.3045
 Frc consts  --      0.4312                 0.7947                 0.9173
 IR Inten    --      2.0473                19.3086                11.1684

                     22                     23                     24
                      A                      A                      A
 Frequencies --    542.5612               570.0186               577.0435
 Red. masses --      5.6058                 2.1915                 3.2263
 Frc consts  --      0.9723                 0.4195                 0.6329
 IR Inten    --      3.6457                15.4042                 7.8464

                     25                     26                     27
                      A                      A                      A
 Frequencies --    587.6701               619.1817               661.6434
 Red. masses --      5.3124                 1.7077                 4.7093
 Frc consts  --      1.0810                 0.3857                 1.2147
 IR Inten    --     62.4784                84.8437                13.3415

                     28                     29                     30
                      A                      A                      A
 Frequencies --    721.0548               731.2501               754.7572
 Red. masses --      6.4337                 4.4170                 3.7134
 Frc consts  --      1.9708                 1.3916                 1.2463
 IR Inten    --      0.0141                 6.8362                15.3746

                     31                     32                     33
                      A                      A                      A
 Frequencies --    818.7679               836.6839               857.3287
 Red. masses --      5.8445                 1.5019                 1.4781
 Frc consts  --      2.3085                 0.6195                 0.6401
 IR Inten    --      7.0758                44.6969                10.5779

                     34                     35                     36
                      A                      A                      A
 Frequencies --    887.4173               937.9960               961.0180
 Red. masses --      2.0673                 4.8272                 3.7963
 Frc consts  --      0.9592                 2.5023                 2.0657
 IR Inten    --     14.3106                 9.5436                30.8697

                     37                     38                     39
                      A                      A                      A
 Frequencies --   1012.7300              1022.5879              1095.7431
 Red. masses --      4.7029                 1.1686                 3.1587
 Frc consts  --      2.8419                 0.7200                 2.2345
 IR Inten    --     15.1791                33.4009                16.6660

                     40                     41                     42
                      A                      A                      A
 Frequencies --   1100.9545              1124.7395              1125.4489
 Red. masses --      1.2435                 1.2658                 2.3545
 Frc consts  --      0.8881                 0.9434                 1.7571
 IR Inten    --      1.1065                 0.9701               160.1716

                     43                     44                     45
                      A                      A                      A
 Frequencies --   1156.7624              1177.7470              1203.1401
 Red. masses --      2.3168                 1.5550                 1.3364
 Frc consts  --      1.8265                 1.2708                 1.1397
 IR Inten    --    692.8988                 2.1169                10.2452

                     46                     47                     48
                      A                      A                      A
 Frequencies --   1213.7485              1264.5105              1272.7453
 Red. masses --      1.6963                 1.9941                 1.9716
 Frc consts  --      1.4723                 1.8786                 1.8817
 IR Inten    --     10.0245                60.8067               324.0644

                     49                     50                     51
                      A                      A                      A
 Frequencies --   1275.6633              1298.5796              1344.7215
 Red. masses --      1.6415                 2.3260                 1.4403
 Frc consts  --      1.5739                 2.3110                 1.5345
 IR Inten    --     65.0986                58.9579                72.3535

                     52                     53                     54
                      A                      A                      A
 Frequencies --   1368.0258              1406.5150              1425.3777
 Red. masses --      2.5720                 3.6805                 3.2158
 Frc consts  --      2.8361                 4.2899                 3.8495
 IR Inten    --    152.4153               140.2900               178.7678

                     55                     56                     57
                      A                      A                      A
 Frequencies --   1447.2885              1467.9557              1490.6285
 Red. masses --      1.4050                 1.4907                 2.7742
 Frc consts  --      1.7340                 1.8926                 3.6318
 IR Inten    --     42.7478                33.0189               115.3262

                     58                     59                     60
                      A                      A                      A
 Frequencies --   1493.2881              1509.0164              1509.4094
 Red. masses --      1.0509                 1.0552                 1.1484
 Frc consts  --      1.3806                 1.4158                 1.5416
 IR Inten    --      9.4915                 8.1153                50.0714

                     61                     62                     63
                      A                      A                      A
 Frequencies --   1517.0957              1559.8834              1650.9140
 Red. masses --      1.0530                 5.2161                 6.8153
 Frc consts  --      1.4280                 7.4779                10.9442
 IR Inten    --     53.4702               361.4089               196.3451

                     64                     65                     66
                      A                      A                      A
 Frequencies --   1664.9569              1707.2316              1802.3090
 Red. masses --      6.5529                 6.1594                 8.8736
 Frc consts  --     10.7025                10.5772                16.9828
 IR Inten    --     60.0504               387.1849               346.2278

                     67                     68                     69
                      A                      A                      A
 Frequencies --   2976.6171              3009.6597              3052.0910
 Red. masses --      1.0395                 1.0369                 1.1117
 Frc consts  --      5.4266                 5.5340                 6.1013
 IR Inten    --     56.6683                52.8268                29.8629

                     70                     71                     72
                      A                      A                      A
 Frequencies --   3081.4394              3163.1352              3177.0581
 Red. masses --      1.1097                 1.0942                 1.0989
 Frc consts  --      6.2081                 6.4504                 6.5350
 IR Inten    --     33.4406                16.3480                20.2949

                     73                     74                     75
                      A                      A                      A
 Frequencies --   3177.3484              3228.8867              3237.4354
 Red. masses --      1.0896                 1.0912                 1.0901
 Frc consts  --      6.4809                 6.7028                 6.7319
 IR Inten    --      1.1375                 2.8973                 2.4445

                     76                     77                     78
                      A                      A                      A
 Frequencies --   3239.2147              3814.9340              3938.5798
 Red. masses --      1.0903                 1.0644                 1.0654
 Frc consts  --      6.7405                 9.1268                 9.7376
 IR Inten    --      2.6288               118.7391               198.2365

 - Thermochemistry -
 -------------------
 Temperature   298.150 Kelvin.  Pressure   1.00000 Atm.
 Atom     1 has atomic number  6 and mass  12.00000

 Molecular mass:   224.06847 amu.
 Principal axes and moments of inertia in atomic units:
                           1         2         3
     Eigenvalues --  2312.115086991.663079280.33880
           X            0.99999   0.00485  -0.00003
           Y           -0.00485   0.99999  -0.00005
           Z            0.00003   0.00005   1.00000
 This molecule is an asymmetric top.
 Rotational symmetry number  1.
 Warning -- assumption of classical behavior for rotation
           may cause significant error
 Rotational temperatures (Kelvin)      0.03746     0.01239     0.00933
 Rotational constants (GHZ):           0.78056     0.25813     0.19447
    1 imaginary frequencies ignored.
 Zero-point vibrational energy     572429.1 (Joules/Mol)
                                  136.81384 (Kcal/Mol)
 Warning -- explicit consideration of  25 degrees of freedom as
           vibrations may cause significant error
 Vibrational temperatures:     37.99    89.78   103.60   109.47   165.99
          (Kelvin)            192.79   214.83   274.43   296.66   313.97
                              357.59   375.89   432.70   467.89   474.05
                              496.80   565.47   589.79   677.70   715.00
                              780.62   820.13   830.24   845.53   890.86
                              951.96  1037.44  1052.10  1085.93  1178.02
                             1203.80  1233.50  1276.79  1349.57  1382.69
                             1457.09  1471.27  1576.53  1584.03  1618.25
                             1619.27  1664.32  1694.51  1731.05  1746.31
                             1819.35  1831.19  1835.39  1868.36  1934.75
                             1968.28  2023.66  2050.80  2082.32  2112.06
                             2144.68  2148.51  2171.14  2171.70  2182.76
                             2244.32  2375.29  2395.50  2456.32  2593.12
                             4282.68  4330.22  4391.27  4433.50  4551.04
                             4571.07  4571.49  4645.64  4657.94  4660.50
                             5488.83  5666.73

 Zero-point correction=                           0.218027 (Hartree/Particle)
 Thermal correction to Energy=                    0.233417
 Thermal correction to Enthalpy=                  0.234361
 Thermal correction to Gibbs Free Energy=         0.174337
 Sum of electronic and zero-point Energies=           -801.670896
 Sum of electronic and thermal Energies=              -801.655506
 Sum of electronic and thermal Enthalpies=            -801.654562
 Sum of electronic and thermal Free Energies=         -801.714586

                     E (Thermal)             CV                S
                      KCal/Mol        Cal/Mol-Kelvin    Cal/Mol-Kelvin
 Total                  146.471             56.844            126.332
 Electronic               0.000              0.000              0.000
 Translational            0.889              2.981             42.123
 Rotational               0.889              2.981             33.372
 Vibrational            144.694             50.883             50.836
 Vibration     1          0.593              1.985              6.083
 Vibration     2          0.597              1.972              4.380
 Vibration     3          0.598              1.967              4.098
 Vibration     4          0.599              1.965              3.989
 Vibration     5          0.608              1.937              3.177
 Vibration     6          0.613              1.919              2.888
 Vibration     7          0.618              1.903              2.681
 Vibration     8          0.634              1.853              2.221
 Vibration     9          0.641              1.831              2.077
 Vibration    10          0.646              1.813              1.974
 Vibration    11          0.662              1.765              1.741
 Vibration    12          0.669              1.744              1.653
 Vibration    13          0.693              1.672              1.413
 Vibration    14          0.709              1.625              1.284
 Vibration    15          0.712              1.617              1.263
 Vibration    16          0.724              1.585              1.188
 Vibration    17          0.760              1.485              0.989
 Vibration    18          0.774              1.449              0.927
 Vibration    19          0.828              1.314              0.735
 Vibration    20          0.852              1.257              0.666
 Vibration    21          0.898              1.156              0.560
 Vibration    22          0.926              1.096              0.504
 Vibration    23          0.934              1.081              0.491
 Vibration    24          0.945              1.058              0.471
 Vibration    25          0.979              0.991              0.418

 Normal termination of Gaussian 09 at Sun May 19 22:51:23 2024.
