 Gaussian 09, Revision E.01,
 Gaussian 09:  ES64L-G09RevE.01 30-Nov-2015

 ---------------------------
 # opt freq apfd/6-31+g(d,p)
 ---------------------------

 ----------
 [No Title]
 ----------
 Symbolic Z-matrix:
 Charge =  1 Multiplicity = 1

 SCF Done:  E(RAPFD) =  -802.255520649     A.U. after   16 cycles
 SCF Done:  E(RAPFD) =  -802.255763776     A.U. after   11 cycles
 SCF Done:  E(RAPFD) =  -802.255777250     A.U. after   11 cycles
 SCF Done:  E(RAPFD) =  -802.255779807     A.U. after   10 cycles
 SCF Done:  E(RAPFD) =  -802.255782365     A.U. after   10 cycles
 SCF Done:  E(RAPFD) =  -802.255784563     A.U. after   10 cycles
 SCF Done:  E(RAPFD) =  -802.255785427     A.U. after   10 cycles
 Optimization completed.
    -- Stationary point found.
 Normal termination of Gaussian 09 at Sun May 19 23:56:42 2024.

 ----------------------------------------------------------------------
 #N Geom=AllCheck Guess=TCheck SCRF=Check GenChk RAPFD/6-31+G(d,p) Freq
 ----------------------------------------------------------------------

 Structure from the checkpoint file:  "lwAPFDSAYang.chk"
 ----------
 [No Title]
 ----------
 Charge =  1 Multiplicity = 1

                         Standard orientation:
 ---------------------------------------------------------------------
 Center     Atomic      Atomic             Coordinates (Angstroms)
 Number     Number       Type             X           Y           Z
 ---------------------------------------------------------------------
      1          6           0        2.389926    0.201656   -0.000738
      2          6           0        1.922775   -1.134848    0.007303
      3          6           0        0.555163   -1.353126    0.011297
      4          6           0       -0.360573   -0.266301    0.008212
      5          6           0        0.121218    1.070009   -0.002894
      6          6           0        1.479845    1.292459   -0.005631
      7          8           0        3.690589    0.420911   -0.004704
      8          8           0        2.887057   -2.062659    0.009956
      9          6           0        2.504775   -3.431345    0.018078
     10          8           0        2.118670    2.481365   -0.014837
     11          6           0        1.343486    3.675589   -0.020469
     12          6           0       -1.735990   -0.573621    0.012129
     13          6           0       -2.799062    0.322077    0.019332
     14          6           0       -4.112022   -0.115942   -0.001044
     15          8           0       -5.073702    0.781695    0.113263
     16          8           0       -4.397285   -1.400249   -0.143068
     17          1           0        0.165823   -2.365351    0.017486
     18          1           0       -0.569477    1.904060   -0.009249
     19          1           0        3.848419    1.380422   -0.010936
     20          1           0        3.436272   -3.995141    0.018929
     21          1           0        1.930307   -3.672922    0.920054
     22          1           0        1.926156   -3.682512   -0.878607
     23          1           0        2.060308    4.494990   -0.026566
     24          1           0        0.719855    3.725166   -0.919611
     25          1           0        0.723072    3.735676    0.880258
     26          1           0       -1.991769   -1.632283    0.008334
     27          1           0       -2.663757    1.396620    0.043013
     28          1           0       -5.953888    0.466818   -0.137342
     29          1           0       -5.291201   -1.643689    0.135912
 ---------------------------------------------------------------------

 SCF Done:  E(RAPFD) =  -802.255785427     A.U. after    1 cycles

 The electronic state is 1-A.
 Alpha  occ. eigenvalues --  -19.42759 -19.42629 -19.37096 -19.37029 -19.34950
 Alpha  occ. eigenvalues --  -10.53238 -10.43023 -10.41870 -10.41183 -10.40041
 Alpha  occ. eigenvalues --  -10.38309 -10.37448 -10.37199 -10.36763 -10.36258
 Alpha  occ. eigenvalues --  -10.36038  -1.33024  -1.25392  -1.25310  -1.22478
 Alpha  occ. eigenvalues --   -1.21061  -1.02495  -0.98480  -0.92916  -0.91467
 Alpha  occ. eigenvalues --   -0.86619  -0.85861  -0.82513  -0.80727  -0.79138
 Alpha  occ. eigenvalues --   -0.74913  -0.72360  -0.71291  -0.68764  -0.66696
 Alpha  occ. eigenvalues --   -0.65248  -0.64756  -0.63911  -0.61932  -0.61751
 Alpha  occ. eigenvalues --   -0.60813  -0.59674  -0.58671  -0.56344  -0.55911
 Alpha  occ. eigenvalues --   -0.55861  -0.55482  -0.53915  -0.53644  -0.52731
 Alpha  occ. eigenvalues --   -0.51411  -0.50025  -0.48508  -0.48494  -0.46990
 Alpha  occ. eigenvalues --   -0.46268  -0.42556  -0.37025  -0.34917
 Alpha virt. eigenvalues --   -0.24133  -0.14645  -0.13435  -0.11908  -0.09341
 Alpha virt. eigenvalues --   -0.09052  -0.08979  -0.08008  -0.06840  -0.06112
 Alpha virt. eigenvalues --   -0.05585  -0.05425  -0.04623  -0.03940  -0.03757

 Mulliken charges:
               1
     1  C   -0.296770
     2  C    0.387523
     3  C    0.115130
     4  C   -0.298334
     5  C   -0.121628
     6  C    0.242769
     7  O   -0.440858
     8  O   -0.307338
     9  C   -0.152385
    10  O   -0.406041
    11  C   -0.159871
    12  C    0.055059
    13  C   -0.651326
    14  C    0.864535
    15  O   -0.402906
    16  O   -0.447763
    17  H    0.173553
    18  H    0.157718
    19  H    0.430428
    20  H    0.197398
    21  H    0.170922
    22  H    0.171214
    23  H    0.196901
    24  H    0.177493
    25  H    0.177557
    26  H    0.192565
    27  H    0.186934
    28  H    0.392673
    29  H    0.394848
 Sum of Mulliken charges =   1.00000

 Dipole moment (field-independent basis, Debye):
    X=             -9.8260    Y=             -0.0599    Z=              0.0456  Tot=              9.8262
 Quadrupole moment (field-independent basis, Debye-Ang):
   XX=             -9.5935   YY=            -55.4979   ZZ=            -94.0023
   XY=             11.2629   XZ=              0.1064   YZ=             -1.4058

  Exact polarizability: 334.857   6.972 165.479  -0.234   0.192  80.261
 Approx polarizability: 633.115  26.227 231.169  -0.795   0.916 117.825

                      1                      2                      3
                      A                      A                      A
 Frequencies --     46.5881                57.7461                66.0863
 Red. masses --      6.3187                 5.4826                 3.1855
 Frc consts  --      0.0081                 0.0108                 0.0082
 IR Inten    --      0.5649                 1.2086                 8.5541

                      4                      5                      6
                      A                      A                      A
 Frequencies --     71.1124               109.4566               143.3047
 Red. masses --      5.1007                 3.6618                 5.7783
 Frc consts  --      0.0152                 0.0258                 0.0699
 IR Inten    --      0.7045                 0.1022                 0.7527

                      7                      8                      9
                      A                      A                      A
 Frequencies --    175.1507               179.5308               197.4009
 Red. masses --      3.8821                 3.3027                 1.6912
 Frc consts  --      0.0702                 0.0627                 0.0388
 IR Inten    --      3.6749                15.8367                 7.8590

                     10                     11                     12
                      A                      A                      A
 Frequencies --    202.7851               245.9459               247.6835
 Red. masses --      3.0823                 1.1961                 4.8026
 Frc consts  --      0.0747                 0.0426                 0.1736
 IR Inten    --     10.8896                24.7739                 6.5241

                     13                     14                     15
                      A                      A                      A
 Frequencies --    263.0112               290.2361               310.7659
 Red. masses --      1.5433                 1.5533                 5.6911
 Frc consts  --      0.0629                 0.0771                 0.3238
 IR Inten    --     88.1889                90.5056                19.3137

                     16                     17                     18
                      A                      A                      A
 Frequencies --    339.2766               363.5543               378.5881
 Red. masses --      2.4386                 4.3546                 4.4407
 Frc consts  --      0.1654                 0.3391                 0.3750
 IR Inten    --     60.4203                 2.4105                 0.6778

                     19                     20                     21
                      A                      A                      A
 Frequencies --    410.1770               415.1887               499.8590
 Red. masses --      1.3838                 2.3189                 6.1592
 Frc consts  --      0.1372                 0.2355                 0.9067
 IR Inten    --    191.1612                68.4887                 9.1055

                     22                     23                     24
                      A                      A                      A
 Frequencies --    526.4226               532.0282               560.3216
 Red. masses --      6.9239                 4.9253                 2.6846
 Frc consts  --      1.1305                 0.8214                 0.4966
 IR Inten    --      6.1032                21.6850                17.4795

                     25                     26                     27
                      A                      A                      A
 Frequencies --    583.4541               593.4491               620.6009
 Red. masses --      3.7052                 3.7332                 1.3180
 Frc consts  --      0.7431                 0.7746                 0.2991
 IR Inten    --     10.9320                11.3712                83.1010

                     28                     29                     30
                      A                      A                      A
 Frequencies --    673.6402               692.9589               721.8078
 Red. masses --      4.2331                 4.9855                 4.9443
 Frc consts  --      1.1318                 1.4105                 1.5177
 IR Inten    --      0.6621                 8.2398                42.8240

                     31                     32                     33
                      A                      A                      A
 Frequencies --    732.0482               833.6879               837.2789
 Red. masses --     10.3070                 1.5488                 5.5913
 Frc consts  --      3.2543                 0.6342                 2.3094
 IR Inten    --      0.1385                 5.4649                 2.5304

                     34                     35                     36
                      A                      A                      A
 Frequencies --    849.8094               866.0771               948.2964
 Red. masses --      1.3506                 1.5199                 5.1401
 Frc consts  --      0.5747                 0.6717                 2.7234
 IR Inten    --     40.1641                25.8078                 4.3557

                     37                     38                     39
                      A                      A                      A
 Frequencies --    992.7052              1000.3532              1029.8715
 Red. masses --      1.3694                 4.2573                 3.9779
 Frc consts  --      0.7951                 2.5101                 2.4858
 IR Inten    --     53.3930               159.6060                26.9249

                     40                     41                     42
                      A                      A                      A
 Frequencies --   1069.0560              1120.9842              1133.3776
 Red. masses --      4.0045                 1.2607                 1.2567
 Frc consts  --      2.6965                 0.9334                 0.9511
 IR Inten    --      0.7831                 1.0400                 0.7715

                     43                     44                     45
                      A                      A                      A
 Frequencies --   1151.3423              1153.3380              1170.0393
 Red. masses --      1.2927                 1.9247                 1.5077
 Frc consts  --      1.0096                 1.5084                 1.2161
 IR Inten    --    112.0921               295.7256              1115.7246

                     46                     47                     48
                      A                      A                      A
 Frequencies --   1200.7288              1205.6497              1235.3903
 Red. masses --      1.3539                 1.5216                 1.6273
 Frc consts  --      1.1501                 1.3031                 1.4633
 IR Inten    --      1.5574                43.1324                18.8591

                     49                     50                     51
                      A                      A                      A
 Frequencies --   1273.7868              1287.0333              1310.8529
 Red. masses --      1.9494                 1.6778                 1.6414
 Frc consts  --      1.8635                 1.6375                 1.6618
 IR Inten    --    267.6024                34.9766               310.0121

                     52                     53                     54
                      A                      A                      A
 Frequencies --   1334.1304              1364.6131              1405.4351
 Red. masses --      1.7190                 3.2776                 2.6269
 Frc consts  --      1.8027                 3.5960                 3.0571
 IR Inten    --     18.5112                59.1990               391.7878

                     55                     56                     57
                      A                      A                      A
 Frequencies --   1442.1755              1459.5875              1469.8837
 Red. masses --      2.9053                 1.3440                 1.4727
 Frc consts  --      3.5602                 1.6869                 1.8747
 IR Inten    --    612.6597                13.6124                77.5088

                     58                     59                     60
                      A                      A                      A
 Frequencies --   1493.1249              1494.8986              1494.9365
 Red. masses --      1.0490                 1.1334                 2.8379
 Frc consts  --      1.3779                 1.4923                 3.7367
 IR Inten    --     13.8538                48.3038               337.3983

                     61                     62                     63
                      A                      A                      A
 Frequencies --   1499.7542              1504.1708              1539.6729
 Red. masses --      1.0820                 1.2301                 5.5486
 Frc consts  --      1.4339                 1.6398                 7.7498
 IR Inten    --      9.0556               249.2964               373.7137

                     64                     65                     66
                      A                      A                      A
 Frequencies --   1557.2494              1622.6387              1641.9443
 Red. masses --      5.2829                 4.9149                 5.9256
 Frc consts  --      7.5481                 7.6245                 9.4124
 IR Inten    --    859.8427                75.7359               617.5291

                     67                     68                     69
                      A                      A                      A
 Frequencies --   1654.9633              1690.1285              3023.0901
 Red. masses --      4.8605                 5.5197                 1.0367
 Frc consts  --      7.8434                 9.2897                 5.5824
 IR Inten    --    360.6647               832.2557                29.9089

                     70                     71                     72
                      A                      A                      A
 Frequencies --   3037.2451              3103.1766              3121.1092
 Red. masses --      1.0353                 1.1110                 1.1110
 Frc consts  --      5.6271                 6.3034                 6.3762
 IR Inten    --     22.9109                21.9930                16.8311

                     73                     74                     75
                      A                      A                      A
 Frequencies --   3196.4190              3201.6966              3205.0244
 Red. masses --      1.0902                 1.1000                 1.1015
 Frc consts  --      6.5628                 6.6434                 6.6666
 IR Inten    --      0.8305                 5.2804                 4.0015

                     76                     77                     78
                      A                      A                      A
 Frequencies --   3242.2730              3253.2126              3259.9443
 Red. masses --      1.0910                 1.0916                 1.0901
 Frc consts  --      6.7570                 6.8067                 6.8254
 IR Inten    --      1.5580                 2.9990                 0.0494

                     79                     80                     81
                      A                      A                      A
 Frequencies --   3749.1214              3821.2669              3830.6037
 Red. masses --      1.0650                 1.0679                 1.0662
 Frc consts  --      8.8201                 9.1874                 9.2173
 IR Inten    --    359.4405                65.2864               672.8167

 - Thermochemistry -
 -------------------
 Temperature   298.150 Kelvin.  Pressure   1.00000 Atm.
 Atom     1 has atomic number  6 and mass  12.00000

 Molecular mass:   225.07630 amu.
 Principal axes and moments of inertia in atomic units:
                           1         2         3
     Eigenvalues --  2522.004586562.228529056.65509
           X            0.99999  -0.00348   0.00000
           Y            0.00348   0.99999  -0.00112
           Z            0.00000   0.00112   1.00000
 This molecule is an asymmetric top.
 Rotational symmetry number  1.
 Warning -- assumption of classical behavior for rotation
           may cause significant error
 Rotational temperatures (Kelvin)      0.03434     0.01320     0.00956
 Rotational constants (GHZ):           0.71560     0.27502     0.19927
 Zero-point vibrational energy     607902.3 (Joules/Mol)
                                  145.29214 (Kcal/Mol)
 Warning -- explicit consideration of  27 degrees of freedom as
           vibrations may cause significant error
 Vibrational temperatures:     67.03    83.08    95.08   102.31   157.48
          (Kelvin)            206.18   252.00   258.30   284.02   291.76
                              353.86   356.36   378.41   417.58   447.12
                              488.14   523.07   544.70   590.15   597.36
                              719.18   757.40   765.47   806.18   839.46
                              853.84   892.91   969.22   997.01  1038.52
                             1053.25  1199.49  1204.66  1222.68  1246.09
                             1364.39  1428.28  1439.28  1481.75  1538.13
                             1612.84  1630.68  1656.52  1659.39  1683.42
                             1727.58  1734.66  1777.45  1832.69  1851.75
                             1886.02  1919.51  1963.37  2022.11  2074.97
                             2100.02  2114.83  2148.27  2150.82  2150.88
                             2157.81  2164.16  2215.24  2240.53  2334.61
                             2362.39  2381.12  2431.71  4349.55  4369.91
                             4464.77  4490.57  4598.93  4606.52  4611.31
                             4664.90  4680.64  4690.33  5394.14  5497.94
                             5511.38

 Zero-point correction=                           0.231538 (Hartree/Particle)
 Thermal correction to Energy=                    0.247704
 Thermal correction to Enthalpy=                  0.248648
 Thermal correction to Gibbs Free Energy=         0.187678
 Sum of electronic and zero-point Energies=           -802.024248
 Sum of electronic and thermal Energies=              -802.008081
 Sum of electronic and thermal Enthalpies=            -802.007137
 Sum of electronic and thermal Free Energies=         -802.068107

                     E (Thermal)             CV                S
                      KCal/Mol        Cal/Mol-Kelvin    Cal/Mol-Kelvin
 Total                  155.437             60.133            128.322
 Electronic               0.000              0.000              0.000
 Translational            0.889              2.981             42.136
 Rotational               0.889              2.981             33.371
 Vibrational            153.659             54.172             52.814
 Vibration     1          0.595              1.979              4.957
 Vibration     2          0.596              1.974              4.533
 Vibration     3          0.597              1.970              4.267
 Vibration     4          0.598              1.968              4.122
 Vibration     5          0.606              1.942              3.279
 Vibration     6          0.616              1.910              2.759
 Vibration     7          0.627              1.873              2.379
 Vibration     8          0.629              1.867              2.333
 Vibration     9          0.637              1.844              2.157
 Vibration    10          0.639              1.836              2.108
 Vibration    11          0.660              1.769              1.759
 Vibration    12          0.661              1.767              1.747
 Vibration    13          0.670              1.741              1.642
 Vibration    14          0.686              1.692              1.473
 Vibration    15          0.700              1.653              1.358
 Vibration    16          0.719              1.597              1.216
 Vibration    17          0.737              1.547              1.107
 Vibration    18          0.749              1.516              1.045
 Vibration    19          0.774              1.448              0.926
 Vibration    20          0.779              1.437              0.908
 Vibration    21          0.855              1.250              0.658
 Vibration    22          0.881              1.192              0.595
 Vibration    23          0.887              1.179              0.583
 Vibration    24          0.916              1.117              0.523
 Vibration    25          0.940              1.067              0.479
 Vibration    26          0.951              1.046              0.461
 Vibration    27          0.981              0.988              0.416

 Optimization completed.
    -- Stationary point found.
 Normal termination of Gaussian 09 at Mon May 20 00:04:32 2024.
