 Gaussian 09, Revision E.01,
 Gaussian 09:  ES64L-G09RevE.01 30-Nov-2015

 -----------------------------
 # opt freq B2PLYP/6-31+g(d,p)
 -----------------------------

 ----------
 [No Title]
 ----------
 Symbolic Z-matrix:
 Charge =  1 Multiplicity = 1

 SCF Done:  E(RB2PLYP) =  -801.318021121     A.U. after   16 cycles
 E2(B2PLYP) =    -0.7912219589D+00 E(B2PLYP) =    -0.80210924307980D+03
 SCF Done:  E(RB2PLYP) =  -801.317181937     A.U. after   13 cycles
 E2(B2PLYP) =    -0.7928331820D+00 E(B2PLYP) =    -0.80211001511908D+03
 SCF Done:  E(RB2PLYP) =  -801.316974053     A.U. after   12 cycles
 E2(B2PLYP) =    -0.7931326206D+00 E(B2PLYP) =    -0.80211010667410D+03
 SCF Done:  E(RB2PLYP) =  -801.316923229     A.U. after   11 cycles
 E2(B2PLYP) =    -0.7932051932D+00 E(B2PLYP) =    -0.80211012842214D+03
 SCF Done:  E(RB2PLYP) =  -801.316875784     A.U. after   11 cycles
 E2(B2PLYP) =    -0.7932684913D+00 E(B2PLYP) =    -0.80211014427506D+03
 SCF Done:  E(RB2PLYP) =  -801.316877443     A.U. after   12 cycles
 E2(B2PLYP) =    -0.7932861301D+00 E(B2PLYP) =    -0.80211016357300D+03
 SCF Done:  E(RB2PLYP) =  -801.316921206     A.U. after   11 cycles
 E2(B2PLYP) =    -0.7932482717D+00 E(B2PLYP) =    -0.80211016947819D+03
 SCF Done:  E(RB2PLYP) =  -801.316928707     A.U. after    9 cycles
 E2(B2PLYP) =    -0.7932412184D+00 E(B2PLYP) =    -0.80211016992519D+03
 Optimization completed.
    -- Stationary point found.
 Normal termination of Gaussian 09 at Sat Dec 14 21:23:02 2024.

 ----------------------------------------------------------------------
 #N Geom=AllCheck Guess=TCheck SCRF=Check GenChk RB2PLYP(FC)/6-31+G(d,p
 ) Freq
 ----------------------------------------------------------------------

 Structure from the checkpoint file:  "B2PLYPSAYang.chk"
 ----------
 [No Title]
 ----------
 Charge =  1 Multiplicity = 1

                         Standard orientation:
 ---------------------------------------------------------------------
 Center     Atomic      Atomic             Coordinates (Angstroms)
 Number     Number       Type             X           Y           Z
 ---------------------------------------------------------------------
      1          6           0        2.400406    0.201060   -0.001208
      2          6           0        1.927287   -1.136874    0.008459
      3          6           0        0.557610   -1.353986    0.012400
      4          6           0       -0.359236   -0.262525    0.009755
      5          6           0        0.127282    1.076239   -0.004916
      6          6           0        1.489276    1.295089   -0.007065
      7          8           0        3.710899    0.415766   -0.005189
      8          8           0        2.890216   -2.076609    0.011616
      9          6           0        2.490007   -3.453492    0.023038
     10          8           0        2.127458    2.492890   -0.018611
     11          6           0        1.337191    3.692881   -0.024123
     12          6           0       -1.736878   -0.569730    0.014648
     13          6           0       -2.804454    0.327187    0.025384
     14          6           0       -4.117310   -0.113379   -0.000700
     15          8           0       -5.091064    0.778629    0.135024
     16          8           0       -4.407204   -1.401112   -0.170262
     17          1           0        0.165216   -2.361974    0.019994
     18          1           0       -0.559588    1.910006   -0.012552
     19          1           0        3.874597    1.376110   -0.012745
     20          1           0        3.416786   -4.019282    0.024873
     21          1           0        1.914950   -3.680500    0.923986
     22          1           0        1.910261   -3.694157   -0.871335
     23          1           0        2.052345    4.509827   -0.031200
     24          1           0        0.716054    3.733054   -0.921165
     25          1           0        0.720744    3.744309    0.875582
     26          1           0       -1.991547   -1.625833    0.008026
     27          1           0       -2.672072    1.398979    0.058876
     28          1           0       -5.962444    0.463331   -0.151872
     29          1           0       -5.294841   -1.645213    0.134882
 ---------------------------------------------------------------------

 SCF Done:  E(RB2PLYP) =  -801.316928707     A.U. after    1 cycles
 E2(B2PLYP) =    -0.7932412160D+00 E(B2PLYP) =    -0.80211016992282D+03
 E2(B2PLYP) =    -0.7932412160D+00 E(B2PLYP) =    -0.80211016992282D+03

 The electronic state is 1-A.
 Alpha  occ. eigenvalues --  -19.98406 -19.98198 -19.91661 -19.91294 -19.89225
 Alpha  occ. eigenvalues --  -10.96529 -10.85117 -10.83592 -10.82975 -10.82901
 Alpha  occ. eigenvalues --  -10.79818 -10.79000 -10.78835 -10.78263 -10.78192
 Alpha  occ. eigenvalues --  -10.78020  -1.45789  -1.37699  -1.36912  -1.33859
 Alpha  occ. eigenvalues --   -1.32389  -1.13311  -1.08818  -1.02482  -1.00900
 Alpha  occ. eigenvalues --   -0.95387  -0.94526  -0.90966  -0.87819  -0.87138
 Alpha  occ. eigenvalues --   -0.82737  -0.80111  -0.78141  -0.75915  -0.73698
 Alpha  occ. eigenvalues --   -0.72078  -0.71531  -0.70250  -0.68574  -0.68000
 Alpha  occ. eigenvalues --   -0.67638  -0.65950  -0.65025  -0.62778  -0.62457
 Alpha  occ. eigenvalues --   -0.62102  -0.61639  -0.60564  -0.59926  -0.58891
 Alpha  occ. eigenvalues --   -0.56469  -0.55961  -0.54314  -0.53935  -0.52198
 Alpha  occ. eigenvalues --   -0.52127  -0.46921  -0.40434  -0.37726
 Alpha virt. eigenvalues --   -0.20107  -0.12091  -0.08355  -0.07208  -0.06953
 Alpha virt. eigenvalues --   -0.06779  -0.05975  -0.05347  -0.04121  -0.03782
 Alpha virt. eigenvalues --   -0.03206  -0.02395  -0.02200  -0.02092  -0.01490

 Mulliken charges:
               1
     1  C   -0.134726
     2  C    0.408821
     3  C    0.102150
     4  C   -0.338240
     5  C   -0.078940
     6  C    0.249640
     7  O   -0.504708
     8  O   -0.401903
     9  C   -0.063872
    10  O   -0.495880
    11  C   -0.066684
    12  C    0.112945
    13  C   -0.635688
    14  C    0.936008
    15  O   -0.452399
    16  O   -0.500494
    17  H    0.167125
    18  H    0.153924
    19  H    0.436522
    20  H    0.175685
    21  H    0.145394
    22  H    0.145735
    23  H    0.175098
    24  H    0.152342
    25  H    0.152468
    26  H    0.188516
    27  H    0.176957
    28  H    0.396418
    29  H    0.397785
 Sum of Mulliken charges =   1.00000

 Dipole moment (field-independent basis, Debye):
    X=            -10.5787    Y=             -0.2126    Z=              0.0365  Tot=             10.5809
 Quadrupole moment (field-independent basis, Debye-Ang):
   XX=            -13.3646   YY=            -56.6217   ZZ=            -94.8130
   XY=             11.6352   XZ=              0.2875   YZ=             -1.6231

  Exact polarizability: 352.850   8.380 166.425  -0.259   0.265  81.431
 Approx polarizability: 381.205  12.401 178.028  -0.568   0.690 103.465

                      1                      2                      3
                      A                      A                      A
 Frequencies --     43.9920                56.0010                62.4018
 Red. masses --      6.0303                 5.0654                 3.3415
 Frc consts  --      0.0069                 0.0094                 0.0077
 IR Inten    --      0.6646                 0.3047                 9.5181

                      4                      5                      6
                      A                      A                      A
 Frequencies --     73.2544                98.5911               132.3846
 Red. masses --      5.1106                 3.6705                 5.8549
 Frc consts  --      0.0162                 0.0210                 0.0605
 IR Inten    --      0.5467                 0.0469                 0.9239

                      7                      8                      9
                      A                      A                      A
 Frequencies --    169.0180               172.5145               189.8949
 Red. masses --      3.7541                 3.6392                 1.4543
 Frc consts  --      0.0632                 0.0638                 0.0309
 IR Inten    --      9.2582                 3.1977                 2.7309

                     10                     11                     12
                      A                      A                      A
 Frequencies --    198.0012               232.3610               246.3932
 Red. masses --      3.8435                 1.2182                 4.9777
 Frc consts  --      0.0888                 0.0388                 0.1780
 IR Inten    --     12.5697                 3.3408                 3.6216

                     13                     14                     15
                      A                      A                      A
 Frequencies --    259.3990               293.6506               309.0131
 Red. masses --      1.8817                 1.8487                 5.4780
 Frc consts  --      0.0746                 0.0939                 0.3082
 IR Inten    --     21.3539               139.8255                18.3626

                     16                     17                     18
                      A                      A                      A
 Frequencies --    336.9133               358.9329               374.7614
 Red. masses --      1.7908                 4.4109                 4.3812
 Frc consts  --      0.1198                 0.3348                 0.3625
 IR Inten    --    202.5128                 2.9849                 0.7114

                     19                     20                     21
                      A                      A                      A
 Frequencies --    396.5133               414.5969               480.2037
 Red. masses --      3.1515                 1.2077                 6.5939
 Frc consts  --      0.2919                 0.1223                 0.8959
 IR Inten    --     24.5529               244.1839                 4.1236

                     22                     23                     24
                      A                      A                      A
 Frequencies --    498.8378               527.2241               528.2007
 Red. masses --      6.0722                 6.5172                 3.0438
 Frc consts  --      0.8903                 1.0673                 0.5003
 IR Inten    --      7.1528                 4.5104                18.8559

                     25                     26                     27
                      A                      A                      A
 Frequencies --    530.0219               580.8748               585.4134
 Red. masses --      4.8476                 3.7197                 2.2480
 Frc consts  --      0.8024                 0.7395                 0.4539
 IR Inten    --     22.3018                 7.0945                32.4971

                     28                     29                     30
                      A                      A                      A
 Frequencies --    605.3300               663.4850               677.7899
 Red. masses --      2.1696                 4.7934                 4.5189
 Frc consts  --      0.4684                 1.2432                 1.2231
 IR Inten    --     59.7098                 1.9089                 6.6101

                     31                     32                     33
                      A                      A                      A
 Frequencies --    711.2720               785.4337               813.1960
 Red. masses --      5.1229                 1.4414                 1.2467
 Frc consts  --      1.5270                 0.5239                 0.4857
 IR Inten    --     58.0390                 5.5212                27.3946

                     34                     35                     36
                      A                      A                      A
 Frequencies --    836.2036               839.3358               931.2759
 Red. masses --      4.9172                 1.5731                 5.4999
 Frc consts  --      2.0258                 0.6529                 2.8103
 IR Inten    --      4.3710                33.0232                 5.0150

                     37                     38                     39
                      A                      A                      A
 Frequencies --    976.2793               984.1382              1014.3159
 Red. masses --      1.3318                 4.1242                 4.3996
 Frc consts  --      0.7479                 2.3534                 2.6669
 IR Inten    --     75.9567               192.9244                28.2107

                     40                     41                     42
                      A                      A                      A
 Frequencies --   1061.4682              1148.9697              1160.4505
 Red. masses --      4.5357                 3.2859                 1.1658
 Frc consts  --      3.0110                 2.5558                 0.9250
 IR Inten    --      3.9926               326.1106               228.9412

                     43                     44                     45
                      A                      A                      A
 Frequencies --   1172.9259              1180.2908              1182.4794
 Red. masses --      1.5061                 1.2613                 1.2554
 Frc consts  --      1.2208                 1.0353                 1.0342
 IR Inten    --   1108.1252                 1.9741                 1.1055

                     46                     47                     48
                      A                      A                      A
 Frequencies --   1213.2497              1219.4021              1237.4677
 Red. masses --      1.4741                 1.3466                 1.7385
 Frc consts  --      1.2785                 1.1797                 1.5686
 IR Inten    --      0.8788                 3.3958                42.6507

                     49                     50                     51
                      A                      A                      A
 Frequencies --   1269.6226              1291.3533              1313.7977
 Red. masses --      1.8649                 1.8153                 1.5959
 Frc consts  --      1.7712                 1.7835                 1.6230
 IR Inten    --    350.1076                14.3343               349.1541

                     52                     53                     54
                      A                      A                      A
 Frequencies --   1335.7686              1353.0953              1396.7264
 Red. masses --      1.6633                 2.9077                 3.0161
 Frc consts  --      1.7486                 3.1366                 3.4667
 IR Inten    --      1.5083                71.9563               473.4833

                     55                     56                     57
                      A                      A                      A
 Frequencies --   1435.5848              1471.9166              1491.4891
 Red. masses --      4.5606                 4.0319                 1.3056
 Frc consts  --      5.5377                 5.1467                 1.7112
 IR Inten    --    880.5036               304.8078                28.0671

                     58                     59                     60
                      A                      A                      A
 Frequencies --   1502.9127              1517.6337              1519.8697
 Red. masses --      1.3310                 1.0484                 1.0488
 Frc consts  --      1.7713                 1.4227                 1.4275
 IR Inten    --     40.5098                12.6171                12.7190

                     61                     62                     63
                      A                      A                      A
 Frequencies --   1525.2395              1525.7685              1534.4908
 Red. masses --      1.1578                 1.0547                 3.7350
 Frc consts  --      1.5870                 1.4467                 5.1816
 IR Inten    --    230.5249                34.4782               327.6648

                     64                     65                     66
                      A                      A                      A
 Frequencies --   1544.7979              1612.5220              1627.8411
 Red. masses --      3.7167                 4.5361                 5.3265
 Frc consts  --      5.2258                 6.9494                 8.3160
 IR Inten    --    534.9254                88.3395               385.3632

                     67                     68                     69
                      A                      A                      A
 Frequencies --   1649.8950              1682.0582              3072.0061
 Red. masses --      4.4295                 5.1708                 1.0329
 Frc consts  --      7.1042                 8.6196                 5.7432
 IR Inten    --    646.9943              1012.7851                29.2210

                     70                     71                     72
                      A                      A                      A
 Frequencies --   3080.6217              3153.4818              3166.0571
 Red. masses --      1.0319                 1.1081                 1.1088
 Frc consts  --      5.7701                 6.4927                 6.5483
 IR Inten    --     22.1604                22.8989                17.8329

                     73                     74                     75
                      A                      A                      A
 Frequencies --   3210.9057              3225.8223              3228.7860
 Red. masses --      1.0899                 1.1023                 1.1036
 Frc consts  --      6.6203                 6.7582                 6.7785
 IR Inten    --      0.7244                 5.4857                 4.3236

                     76                     77                     78
                      A                      A                      A
 Frequencies --   3256.8202              3266.6003              3277.1973
 Red. masses --      1.0909                 1.0914                 1.0899
 Frc consts  --      6.8172                 6.8617                 6.8967
 IR Inten    --      1.4851                 3.0754                 0.1505

                     79                     80                     81
                      A                      A                      A
 Frequencies --   3724.3941              3789.9484              3799.1594
 Red. masses --      1.0651                 1.0679                 1.0661
 Frc consts  --      8.7046                 9.0372                 9.0664
 IR Inten    --    401.3287                82.8524               670.0965

 - Thermochemistry -
 -------------------
 Temperature   298.150 Kelvin.  Pressure   1.00000 Atm.
 Atom     1 has atomic number  6 and mass  12.00000

 Molecular mass:   225.07630 amu.
 Principal axes and moments of inertia in atomic units:
                           1         2         3
     Eigenvalues --  2544.074896593.804349108.65649
           X            0.99999  -0.00339   0.00004
           Y            0.00339   0.99999  -0.00126
           Z           -0.00004   0.00126   1.00000
 This molecule is an asymmetric top.
 Rotational symmetry number  1.
 Warning -- assumption of classical behavior for rotation
           may cause significant error
 Rotational temperatures (Kelvin)      0.03405     0.01314     0.00951
 Rotational constants (GHZ):           0.70939     0.27370     0.19813
 Zero-point vibrational energy     606616.2 (Joules/Mol)
                                  144.98475 (Kcal/Mol)
 Warning -- explicit consideration of  28 degrees of freedom as
           vibrations may cause significant error
 Vibrational temperatures:     63.29    80.57    89.78   105.40   141.85
          (Kelvin)            190.47   243.18   248.21   273.22   284.88
                              334.32   354.50   373.22   422.50   444.60
                              484.74   516.42   539.20   570.49   596.51
                              690.91   717.72   758.56   759.96   762.58
                              835.75   842.28   870.93   954.61   975.19
                             1023.36  1130.06  1170.01  1203.11  1207.62
                             1339.90  1404.65  1415.95  1459.37  1527.21
                             1653.11  1669.63  1687.58  1698.17  1701.32
                             1745.59  1754.45  1780.44  1826.70  1857.97
                             1890.26  1921.87  1946.80  2009.58  2065.48
                             2117.76  2145.92  2162.35  2183.53  2186.75
                             2194.48  2195.24  2207.79  2222.62  2320.06
                             2342.10  2373.83  2420.10  4419.93  4432.32
                             4537.15  4555.24  4619.77  4641.23  4645.50
                             4685.83  4699.90  4715.15  5358.57  5452.88
                             5466.14

 Zero-point correction=                           0.231048 (Hartree/Particle)
 Thermal correction to Energy=                    0.247575
 Thermal correction to Enthalpy=                  0.248520
 Thermal correction to Gibbs Free Energy=         0.186712
 Sum of electronic and zero-point Energies=           -801.879122
 Sum of electronic and thermal Energies=              -801.862595
 Sum of electronic and thermal Enthalpies=            -801.861650
 Sum of electronic and thermal Free Energies=         -801.923458

                     E (Thermal)             CV                S
                      KCal/Mol        Cal/Mol-Kelvin    Cal/Mol-Kelvin
 Total                  155.356             61.130            130.085
 Electronic               0.000              0.000              0.000
 Translational            0.889              2.981             42.136
 Rotational               0.889              2.981             33.391
 Vibrational            153.578             55.168             54.558
 Vibration     1          0.595              1.980              5.071
 Vibration     2          0.596              1.975              4.593
 Vibration     3          0.597              1.972              4.380
 Vibration     4          0.599              1.967              4.064
 Vibration     5          0.604              1.950              3.482
 Vibration     6          0.613              1.921              2.911
 Vibration     7          0.625              1.881              2.446
 Vibration     8          0.626              1.876              2.408
 Vibration     9          0.633              1.854              2.229
 Vibration    10          0.637              1.843              2.152
 Vibration    11          0.653              1.791              1.861
 Vibration    12          0.661              1.769              1.756
 Vibration    13          0.668              1.747              1.666
 Vibration    14          0.688              1.686              1.453
 Vibration    15          0.698              1.657              1.368
 Vibration    16          0.718              1.602              1.227
 Vibration    17          0.734              1.557              1.127
 Vibration    18          0.746              1.524              1.060
 Vibration    19          0.763              1.478              0.976
 Vibration    20          0.778              1.439              0.911
 Vibration    21          0.837              1.294              0.710
 Vibration    22          0.854              1.253              0.661
 Vibration    23          0.882              1.190              0.593
 Vibration    24          0.883              1.188              0.591
 Vibration    25          0.885              1.184              0.587
 Vibration    26          0.938              1.073              0.484
 Vibration    27          0.942              1.063              0.475
 Vibration    28          0.964              1.021              0.441

 Normal termination of Gaussian 09 at Sat Dec 14 23:13:55 2024.
