 Gaussian 09, Revision E.01,
 Gaussian 09:  ES64L-G09RevE.01 30-Nov-2015

 -----------------------------
 # opt freq B2PLYP/6-31+g(d,p)
 -----------------------------

 ----------
 [No Title]
 ----------
 Symbolic Z-matrix:
 Charge =  0 Multiplicity = 1

 SCF Done:  E(RB2PLYP) =  -800.955185891     A.U. after   16 cycles
 E2(B2PLYP) =    -0.7925936421D+00 E(B2PLYP) =    -0.80174777953273D+03
 SCF Done:  E(RB2PLYP) =  -800.954031758     A.U. after   13 cycles
 E2(B2PLYP) =    -0.7945875196D+00 E(B2PLYP) =    -0.80174861927789D+03
 SCF Done:  E(RB2PLYP) =  -800.953586713     A.U. after   12 cycles
 E2(B2PLYP) =    -0.7950904530D+00 E(B2PLYP) =    -0.80174867716569D+03
 SCF Done:  E(RB2PLYP) =  -800.953715230     A.U. after   11 cycles
 E2(B2PLYP) =    -0.7950161990D+00 E(B2PLYP) =    -0.80174873142878D+03
 SCF Done:  E(RB2PLYP) =  -800.953794061     A.U. after   12 cycles
 E2(B2PLYP) =    -0.7949379969D+00 E(B2PLYP) =    -0.80174873205784D+03
 SCF Done:  E(RB2PLYP) =  -800.953828331     A.U. after   10 cycles
 E2(B2PLYP) =    -0.7949097425D+00 E(B2PLYP) =    -0.80174873807331D+03
 SCF Done:  E(RB2PLYP) =  -800.953834990     A.U. after   10 cycles
 E2(B2PLYP) =    -0.7949054193D+00 E(B2PLYP) =    -0.80174874040893D+03
 SCF Done:  E(RB2PLYP) =  -800.953864732     A.U. after   11 cycles
 E2(B2PLYP) =    -0.7948830566D+00 E(B2PLYP) =    -0.80174874778862D+03
 SCF Done:  E(RB2PLYP) =  -800.927874459     A.U. after   15 cycles
 E2(B2PLYP) =    -0.8013136602D+00 E(B2PLYP) =    -0.80172918811908D+03
 SCF Done:  E(RB2PLYP) =  -800.954427692     A.U. after   15 cycles
 E2(B2PLYP) =    -0.7951640663D+00 E(B2PLYP) =    -0.80174959175866D+03
 E2(B2PLYP) =    -0.7950246418D+00 E(B2PLYP) =    -0.80175000904606D+03
 E2(B2PLYP) =    -0.7946415930D+00 E(B2PLYP) =    -0.80175463650264D+03
 E2(B2PLYP) =    -0.7942455493D+00 E(B2PLYP) =    -0.80175770077291D+03
 E2(B2PLYP) =    -0.7944792817D+00 E(B2PLYP) =    -0.80175928253336D+03
 E2(B2PLYP) =    -0.7948764757D+00 E(B2PLYP) =    -0.80176048829602D+03
 E2(B2PLYP) =    -0.7953298923D+00 E(B2PLYP) =    -0.80176227444796D+03
 E2(B2PLYP) =    -0.7955092546D+00 E(B2PLYP) =    -0.80176344581036D+03
 E2(B2PLYP) =    -0.7950076836D+00 E(B2PLYP) =    -0.80176434671024D+03
 E2(B2PLYP) =    -0.7950779715D+00 E(B2PLYP) =    -0.80176505811383D+03
 E2(B2PLYP) =    -0.9350138250D+00 E(B2PLYP) =    -0.80108099080361D+03
 E2(B2PLYP) =    -0.8989161303D+00 E(B2PLYP) =    -0.80122137606602D+03
 E2(B2PLYP) =    -0.7951861995D+00 E(B2PLYP) =    -0.80176502273155D+03
 E2(B2PLYP) =    -0.7950984528D+00 E(B2PLYP) =    -0.80176506019965D+03
 E2(B2PLYP) =    -0.7918557055D+00 E(B2PLYP) =    -0.80175197878823D+03
 E2(B2PLYP) =    -0.7969055681D+00 E(B2PLYP) =    -0.80176528404479D+03
 E2(B2PLYP) =    -0.7948543158D+00 E(B2PLYP) =    -0.80176608966671D+03
 SCF Done:  E(RB2PLYP) =  -800.971348533     A.U. after   14 cycles
 E2(B2PLYP) =    -0.7949953215D+00 E(B2PLYP) =    -0.80176634385444D+03
 SCF Done:  E(RB2PLYP) =  -800.971325088     A.U. after   16 cycles
 E2(B2PLYP) =    -0.7948296773D+00 E(B2PLYP) =    -0.80176615476571D+03
 SCF Done:  E(RB2PLYP) =  -800.971761403     A.U. after   14 cycles
 E2(B2PLYP) =    -0.7951039280D+00 E(B2PLYP) =    -0.80176686533125D+03
 SCF Done:  E(RB2PLYP) =  -800.972022627     A.U. after   13 cycles
 E2(B2PLYP) =    -0.7951267072D+00 E(B2PLYP) =    -0.80176714933382D+03
 SCF Done:  E(RB2PLYP) =  -800.972028097     A.U. after   13 cycles
 E2(B2PLYP) =    -0.7952083302D+00 E(B2PLYP) =    -0.80176723642672D+03
 SCF Done:  E(RB2PLYP) =  -800.972035470     A.U. after   12 cycles
 E2(B2PLYP) =    -0.7952053777D+00 E(B2PLYP) =    -0.80176724084775D+03
 SCF Done:  E(RB2PLYP) =  -800.972026801     A.U. after   11 cycles
 E2(B2PLYP) =    -0.7952156203D+00 E(B2PLYP) =    -0.80176724242128D+03
 SCF Done:  E(RB2PLYP) =  -800.972025699     A.U. after   10 cycles
 E2(B2PLYP) =    -0.7952169821D+00 E(B2PLYP) =    -0.80176724268125D+03
 SCF Done:  E(RB2PLYP) =  -800.972023528     A.U. after   10 cycles
 E2(B2PLYP) =    -0.7952192154D+00 E(B2PLYP) =    -0.80176724274351D+03
 Optimization completed.
    -- Stationary point found.
 Normal termination of Gaussian 09 at Sun Dec 15 17:33:41 2024.

 ----------------------------------------------------------------------
 #N Geom=AllCheck Guess=TCheck SCRF=Check GenChk RB2PLYP(FC)/6-31+G(d,p
 ) Freq
 ----------------------------------------------------------------------

 Structure from the checkpoint file:  "B2PLYPSA.chk"
 ----------
 [No Title]
 ----------
 Charge =  0 Multiplicity = 1

                         Standard orientation:
 ---------------------------------------------------------------------
 Center     Atomic      Atomic             Coordinates (Angstroms)
 Number     Number       Type             X           Y           Z
 ---------------------------------------------------------------------
      1          6           0       -2.387531   -0.216490   -0.015446
      2          6           0       -1.918467    1.106432   -0.012737
      3          6           0       -0.541098    1.344001    0.019982
      4          6           0        0.378506    0.278778    0.042530
      5          6           0       -0.095667   -1.046738    0.047477
      6          6           0       -1.466336   -1.278873    0.011558
      7          8           0       -3.724563   -0.454315   -0.041754
      8          8           0       -2.882483    2.068673   -0.039377
      9          6           0       -2.458646    3.428681   -0.022875
     10          8           0       -2.072222   -2.512981    0.012263
     11          6           0       -1.235621   -3.668506    0.040475
     12          6           0        1.800184    0.601668    0.061196
     13          6           0        2.840724   -0.251056   -0.061238
     14          6           0        4.217206    0.257766   -0.009578
     15          8           0        5.126510   -0.752342   -0.137732
     16          8           0        4.563131    1.422341    0.126637
     17          1           0       -0.162403    2.357176    0.021363
     18          1           0        0.600066   -1.872860    0.081534
     19          1           0       -3.847205   -1.416346   -0.036280
     20          1           0       -3.372885    4.016976   -0.041701
     21          1           0       -1.894377    3.655750    0.886311
     22          1           0       -1.852309    3.664984   -0.902176
     23          1           0       -1.910866   -4.520588    0.032516
     24          1           0       -0.588744   -3.701036   -0.840026
     25          1           0       -0.628752   -3.686715    0.949397
     26          1           0        2.050731    1.653575    0.174734
     27          1           0        2.720745   -1.318245   -0.197298
     28          1           0        6.003494   -0.337654   -0.096737
 ---------------------------------------------------------------------

 SCF Done:  E(RB2PLYP) =  -800.972023528     A.U. after    1 cycles
 E2(B2PLYP) =    -0.7952192158D+00 E(B2PLYP) =    -0.80176724274391D+03
 E2(B2PLYP) =    -0.7952192158D+00 E(B2PLYP) =    -0.80176724274390D+03

 The electronic state is 1-A.
 Alpha  occ. eigenvalues --  -19.80143 -19.79760 -19.78398 -19.78321 -19.73578
 Alpha  occ. eigenvalues --  -10.77427 -10.71053 -10.70599 -10.70449 -10.69948
 Alpha  occ. eigenvalues --  -10.68565 -10.66555 -10.65769 -10.64745 -10.64596
 Alpha  occ. eigenvalues --  -10.64344  -1.25275  -1.24167  -1.22166  -1.20060
 Alpha  occ. eigenvalues --   -1.15556  -0.99879  -0.93329  -0.88618  -0.87488
 Alpha  occ. eigenvalues --   -0.83181  -0.80995  -0.77508  -0.71290  -0.70663
 Alpha  occ. eigenvalues --   -0.65850  -0.63759  -0.62745  -0.59358  -0.58912
 Alpha  occ. eigenvalues --   -0.58022  -0.57017  -0.56533  -0.55422  -0.54800
 Alpha  occ. eigenvalues --   -0.53051  -0.52127  -0.50692  -0.49672  -0.49546
 Alpha  occ. eigenvalues --   -0.48599  -0.47292  -0.45492  -0.43705  -0.43420
 Alpha  occ. eigenvalues --   -0.43034  -0.42617  -0.41161  -0.40222  -0.38859
 Alpha  occ. eigenvalues --   -0.35417  -0.33016  -0.28114  -0.24974
 Alpha virt. eigenvalues --   -0.02450   0.02387   0.03233   0.03349   0.04011
 Alpha virt. eigenvalues --    0.04849   0.05399   0.05655   0.05920   0.07057
 Alpha virt. eigenvalues --    0.07259   0.08039   0.08145   0.08937   0.09039

 Mulliken charges:
               1
     1  C   -0.473938
     2  C    0.598653
     3  C    0.293547
     4  C   -0.559257
     5  C    0.193390
     6  C   -0.065527
     7  O   -0.558671
     8  O   -0.410420
     9  C   -0.066193
    10  O   -0.493608
    11  C   -0.068617
    12  C   -0.004885
    13  C   -0.358151
    14  C    0.784745
    15  O   -0.512019
    16  O   -0.557024
    17  H    0.147339
    18  H    0.136752
    19  H    0.414523
    20  H    0.149073
    21  H    0.137629
    22  H    0.137081
    23  H    0.148211
    24  H    0.143659
    25  H    0.143578
    26  H    0.173677
    27  H    0.143778
    28  H    0.382674
 Sum of Mulliken charges =  -0.00000

 Dipole moment (field-independent basis, Debye):
    X=             -0.6155    Y=             -2.4950    Z=             -0.0588  Tot=              2.5704
 Quadrupole moment (field-independent basis, Debye-Ang):
   XX=           -106.4963   YY=            -74.7939   ZZ=            -96.9589
   XY=             -5.3809   XZ=             -0.9747   YZ=             -0.4943

  Exact polarizability: 246.696  -2.854 173.972  -0.149   1.347  86.207
 Approx polarizability: 250.625  -4.692 192.124  -0.015   2.373 108.407

                      1                      2                      3
                      A                      A                      A
 Frequencies --     30.3025                50.5264                63.4672
 Red. masses --      6.8006                 2.9567                 7.1834
 Frc consts  --      0.0037                 0.0044                 0.0170
 IR Inten    --      0.5247                 8.8378                 0.3953

                      4                      5                      6
                      A                      A                      A
 Frequencies --     69.6382                80.6997               133.9980
 Red. masses --      5.4863                 3.7153                 4.0442
 Frc consts  --      0.0157                 0.0143                 0.0428
 IR Inten    --      0.4888                 0.1393                 0.1963

                      7                      8                      9
                      A                      A                      A
 Frequencies --    150.7905               175.9004               199.0843
 Red. masses --      3.7606                 4.2383                 3.8169
 Frc consts  --      0.0504                 0.0773                 0.0891
 IR Inten    --      3.2741                 3.8391                 1.3533

                     10                     11                     12
                      A                      A                      A
 Frequencies --    201.7164               229.5571               248.4477
 Red. masses --      1.5239                 1.4602                 5.1049
 Frc consts  --      0.0365                 0.0453                 0.1857
 IR Inten    --      0.2557                 0.2183                 1.0076

                     13                     14                     15
                      A                      A                      A
 Frequencies --    267.5455               288.6161               298.7183
 Red. masses --      2.2026                 1.9533                 6.5015
 Frc consts  --      0.0929                 0.0959                 0.3418
 IR Inten    --      0.4069                 0.0366                 6.6933

                     16                     17                     18
                      A                      A                      A
 Frequencies --    363.6145               374.1949               374.8042
 Red. masses --      4.3151                 4.7655                 4.4675
 Frc consts  --      0.3361                 0.3931                 0.3698
 IR Inten    --      0.6204                 1.4609                 0.4197

                     19                     20                     21
                      A                      A                      A
 Frequencies --    445.3997               497.6612               508.7597
 Red. masses --      1.1240                 5.9123                 5.4404
 Frc consts  --      0.1314                 0.8627                 0.8297
 IR Inten    --     96.7808                 7.6402                22.6215

                     22                     23                     24
                      A                      A                      A
 Frequencies --    520.7637               539.5081               553.7684
 Red. masses --      4.6802                 6.7404                 5.4575
 Frc consts  --      0.7478                 1.1559                 0.9861
 IR Inten    --      7.8973                 1.9005                 0.1464

                     25                     26                     27
                      A                      A                      A
 Frequencies --    585.7776               598.0933               605.1620
 Red. masses --      1.9452                 5.3533                 2.4411
 Frc consts  --      0.3933                 1.1283                 0.5267
 IR Inten    --     28.2035                80.0267                73.5088

                     28                     29                     30
                      A                      A                      A
 Frequencies --    666.6042               708.2475               734.8469
 Red. masses --      4.1897                 4.9743                 3.7035
 Frc consts  --      1.0969                 1.4701                 1.1783
 IR Inten    --      9.3884                 7.0575                24.3693

                     31                     32                     33
                      A                      A                      A
 Frequencies --    785.5576               805.6274               827.2398
 Red. masses --      1.2545                 1.3411                 5.5869
 Frc consts  --      0.4561                 0.5128                 2.2526
 IR Inten    --     27.2749                18.9199                 9.3494

                     34                     35                     36
                      A                      A                      A
 Frequencies --    853.4832               933.1647               977.9205
 Red. masses --      2.1756                 5.4926                 4.2351
 Frc consts  --      0.9337                 2.8180                 2.3863
 IR Inten    --     19.2370                10.0935                11.9828

                     37                     38                     39
                      A                      A                      A
 Frequencies --   1008.7205              1015.0591              1080.0924
 Red. masses --      1.1995                 3.5857                 5.2923
 Frc consts  --      0.7191                 2.1767                 3.6376
 IR Inten    --     29.3568                 5.6334                 3.6630

                     40                     41                     42
                      A                      A                      A
 Frequencies --   1143.9769              1156.3210              1181.1645
 Red. masses --      2.4165                 4.0326                 1.2647
 Frc consts  --      1.8633                 3.1768                 1.0396
 IR Inten    --    709.5711               306.9818                 1.7152

                     43                     44                     45
                      A                      A                      A
 Frequencies --   1183.5681              1198.9808              1220.9355
 Red. masses --      1.2593                 1.8416                 1.3632
 Frc consts  --      1.0393                 1.5598                 1.1973
 IR Inten    --      0.9937                31.7342                 2.8611

                     46                     47                     48
                      A                      A                      A
 Frequencies --   1228.6686              1261.6478              1271.6369
 Red. masses --      1.4984                 1.7950                 1.5907
 Frc consts  --      1.3328                 1.6834                 1.5155
 IR Inten    --     20.1964               281.7750                56.4572

                     49                     50                     51
                      A                      A                      A
 Frequencies --   1299.0822              1315.4045              1351.7173
 Red. masses --      2.5198                 1.6024                 1.4297
 Frc consts  --      2.5055                 1.6336                 1.5390
 IR Inten    --     26.6887               198.4469                33.9433

                     52                     53                     54
                      A                      A                      A
 Frequencies --   1365.4483              1402.0874              1441.2499
 Red. masses --      2.5355                 4.3980                 3.3791
 Frc consts  --      2.7852                 5.0940                 4.1355
 IR Inten    --    215.9240                69.9004               112.2374

                     55                     56                     57
                      A                      A                      A
 Frequencies --   1475.8948              1502.4017              1507.8964
 Red. masses --      2.1783                 1.2666                 1.5852
 Frc consts  --      2.7957                 1.6845                 2.1236
 IR Inten    --    143.8511                 9.4067                53.8959

                     58                     59                     60
                      A                      A                      A
 Frequencies --   1515.4593              1517.7927              1532.1969
 Red. masses --      1.0488                 1.0494                 1.0638
 Frc consts  --      1.4192                 1.4243                 1.4714
 IR Inten    --      8.6988                 8.5946                38.5789

                     61                     62                     63
                      A                      A                      A
 Frequencies --   1532.9515              1563.2491              1641.4137
 Red. masses --      1.0726                 4.2310                 5.9256
 Frc consts  --      1.4851                 6.0919                 9.4063
 IR Inten    --     48.2373               273.2947                77.0311

                     64                     65                     66
                      A                      A                      A
 Frequencies --   1657.7149              1690.4254              1773.5711
 Red. masses --      6.0007                 5.8265                 8.5036
 Frc consts  --      9.7156                 9.8096                15.7599
 IR Inten    --    206.8313               338.9164               317.8795

                     67                     68                     69
                      A                      A                      A
 Frequencies --   3058.3731              3067.1512              3131.4646
 Red. masses --      1.0332                 1.0322                 1.1069
 Frc consts  --      5.6941                 5.7213                 6.3953
 IR Inten    --     52.1141                41.5202                34.5482

                     70                     71                     72
                      A                      A                      A
 Frequencies --   3144.0540              3196.9931              3201.3109
 Red. masses --      1.1074                 1.0893                 1.1012
 Frc consts  --      6.4499                 6.5596                 6.6490
 IR Inten    --     28.4628                 1.3931                20.1746

                     73                     74                     75
                      A                      A                      A
 Frequencies --   3204.5151              3244.2787              3252.6579
 Red. masses --      1.1025                 1.0908                 1.0900
 Frc consts  --      6.6704                 6.7645                 6.7946
 IR Inten    --     17.3032                 4.9041                 3.0110

                     76                     77                     78
                      A                      A                      A
 Frequencies --   3264.1308              3782.8389              3784.0942
 Red. masses --      1.0896                 1.0644                 1.0651
 Frc consts  --      6.8397                 8.9745                 8.9857
 IR Inten    --      3.2258               157.3191               114.5447

 - Thermochemistry -
 -------------------
 Temperature   298.150 Kelvin.  Pressure   1.00000 Atm.
 Atom     1 has atomic number  6 and mass  12.00000

 Molecular mass:   224.06847 amu.
 Principal axes and moments of inertia in atomic units:
                           1         2         3
     Eigenvalues --  2515.417196610.412139096.44674
           X            0.99994  -0.01070  -0.00032
           Y            0.01070   0.99994  -0.00034
           Z            0.00033   0.00033   1.00000
 This molecule is an asymmetric top.
 Rotational symmetry number  1.
 Warning -- assumption of classical behavior for rotation
           may cause significant error
 Rotational temperatures (Kelvin)      0.03443     0.01310     0.00952
 Rotational constants (GHZ):           0.71747     0.27301     0.19840
 Zero-point vibrational energy     574912.1 (Joules/Mol)
                                  137.40729 (Kcal/Mol)
 Warning -- explicit consideration of  27 degrees of freedom as
           vibrations may cause significant error
 Vibrational temperatures:     43.60    72.70    91.32   100.19   116.11
          (Kelvin)            192.79   216.95   253.08   286.44   290.22
                              330.28   357.46   384.94   415.25   429.79
                              523.16   538.38   539.26   640.83   716.02
                              731.99   749.26   776.23   796.75   842.80
                              860.52   870.69   959.09  1019.01  1057.28
                             1130.24  1159.12  1190.21  1227.97  1342.61
                             1407.01  1451.32  1460.44  1554.01  1645.93
                             1663.69  1699.43  1702.89  1725.06  1756.65
                             1767.78  1815.23  1829.60  1869.09  1892.57
                             1944.82  1964.57  2017.29  2073.63  2123.48
                             2161.62  2169.52  2180.41  2183.76  2204.49
                             2205.57  2249.16  2361.63  2385.08  2432.14
                             2551.77  4400.31  4412.94  4505.47  4523.59
                             4599.75  4605.97  4610.58  4667.79  4679.84
                             4696.35  5442.65  5444.46

 Zero-point correction=                           0.218972 (Hartree/Particle)
 Thermal correction to Energy=                    0.235116
 Thermal correction to Enthalpy=                  0.236060
 Thermal correction to Gibbs Free Energy=         0.174293
 Sum of electronic and zero-point Energies=           -801.548270
 Sum of electronic and thermal Energies=              -801.532127
 Sum of electronic and thermal Enthalpies=            -801.531182
 Sum of electronic and thermal Free Energies=         -801.592950

                     E (Thermal)             CV                S
                      KCal/Mol        Cal/Mol-Kelvin    Cal/Mol-Kelvin
 Total                  147.538             59.054            130.001
 Electronic               0.000              0.000              0.000
 Translational            0.889              2.981             42.123
 Rotational               0.889              2.981             33.380
 Vibrational            145.760             53.092             54.498
 Vibration     1          0.594              1.984              5.810
 Vibration     2          0.595              1.977              4.797
 Vibration     3          0.597              1.972              4.346
 Vibration     4          0.598              1.969              4.164
 Vibration     5          0.600              1.962              3.874
 Vibration     6          0.613              1.919              2.888
 Vibration     7          0.618              1.902              2.662
 Vibration     8          0.628              1.872              2.371
 Vibration     9          0.637              1.841              2.142
 Vibration    10          0.639              1.837              2.117
 Vibration    11          0.652              1.796              1.882
 Vibration    12          0.662              1.765              1.742
 Vibration    13          0.673              1.733              1.612
 Vibration    14          0.685              1.695              1.482
 Vibration    15          0.692              1.676              1.424
 Vibration    16          0.737              1.547              1.107
 Vibration    17          0.745              1.525              1.063
 Vibration    18          0.746              1.524              1.060
 Vibration    19          0.805              1.371              0.810
 Vibration    20          0.853              1.255              0.664
 Vibration    21          0.864              1.231              0.637
 Vibration    22          0.876              1.204              0.608
 Vibration    23          0.895              1.163              0.566
 Vibration    24          0.909              1.131              0.536
 Vibration    25          0.943              1.062              0.475
 Vibration    26          0.956              1.036              0.453
 Vibration    27          0.964              1.021              0.441

 Normal termination of Gaussian 09 at Sun Dec 15 20:25:56 2024.
