 Gaussian 09, Revision E.01,
 Gaussian 09:  ES64L-G09RevE.01 30-Nov-2015

 ----------------------------
 # opt freq b3lyp/6-31+g(d,p)
 ----------------------------

 ----------
 [No Title]
 ----------
 Symbolic Z-matrix:
 Charge =  0 Multiplicity = 1

 SCF Done:  E(RB3LYP) =  -802.479147180     A.U. after   15 cycles
 SCF Done:  E(RB3LYP) =  -802.518962824     A.U. after   14 cycles
 SCF Done:  E(RB3LYP) =  -802.523667083     A.U. after   14 cycles
 SCF Done:  E(RB3LYP) =  -802.526211727     A.U. after   13 cycles
 SCF Done:  E(RB3LYP) =  -802.527594409     A.U. after   13 cycles
 SCF Done:  E(RB3LYP) =  -802.527678986     A.U. after   12 cycles
 SCF Done:  E(RB3LYP) =  -802.527686715     A.U. after   11 cycles
 SCF Done:  E(RB3LYP) =  -802.527687157     A.U. after    9 cycles
 Optimization completed.
    -- Stationary point found.
 Normal termination of Gaussian 09 at Wed Jun 19 14:08:32 2024.

 ----------------------------------------------------------------------
 #N Geom=AllCheck Guess=TCheck SCRF=Check GenChk RB3LYP/6-31+G(d,p) Fre
 q
 ----------------------------------------------------------------------

 Structure from the checkpoint file:  "b3lypSAgd3.chk"
 ----------
 [No Title]
 ----------
 Charge =  0 Multiplicity = 1

                         Standard orientation:
 ---------------------------------------------------------------------
 Center     Atomic      Atomic             Coordinates (Angstroms)
 Number     Number       Type             X           Y           Z
 ---------------------------------------------------------------------
      1          6           0        2.281140   -0.114926    0.000168
      2          6           0        1.697776    1.177841    0.000232
      3          6           0        0.316268    1.336787    0.000240
      4          6           0       -0.532731    0.210550    0.000167
      5          6           0        0.044264   -1.061835    0.000081
      6          6           0        1.431825   -1.238812   -0.000012
      7          8           0        3.650879   -0.124871   -0.000028
      8          8           0        2.595166    2.202232    0.000297
      9          6           0        2.098390    3.535123    0.000319
     10          8           0        1.799915   -2.568591   -0.000322
     11          6           0        3.142056   -3.029013   -0.000269
     12          6           0       -1.975931    0.432322    0.000173
     13          6           0       -2.957754   -0.493637   -0.000308
     14          6           0       -4.367059   -0.076696   -0.000216
     15          8           0       -5.207399   -1.151508   -0.000906
     16          8           0       -4.791914    1.066967    0.000323
     17          1           0       -0.121069    2.327355    0.000326
     18          1           0       -0.562283   -1.959901    0.000009
     19          1           0        3.993572   -1.022939    0.002039
     20          1           0        2.980149    4.176705    0.000351
     21          1           0        1.499028    3.738751   -0.895829
     22          1           0        1.498994    3.738712    0.896454
     23          1           0        3.075444   -4.118302   -0.000594
     24          1           0        3.684177   -2.727677   -0.907525
     25          1           0        3.683839   -2.728328    0.907445
     26          1           0       -2.296149    1.473312    0.000595
     27          1           0       -2.766491   -1.561158   -0.000792
     28          1           0       -6.111837   -0.796585   -0.000826
 ---------------------------------------------------------------------

 SCF Done:  E(RB3LYP) =  -802.527687157     A.U. after    1 cycles

 The electronic state is 1-A.
 Alpha  occ. eigenvalues --  -19.20436 -19.20230 -19.20075 -19.19481 -19.14083
 Alpha  occ. eigenvalues --  -10.32229 -10.27309 -10.27283 -10.27230 -10.26582
 Alpha  occ. eigenvalues --  -10.25060 -10.21961 -10.21513 -10.20327 -10.20294
 Alpha  occ. eigenvalues --  -10.20052  -1.10440  -1.09619  -1.08179  -1.06692
 Alpha  occ. eigenvalues --   -1.01316  -0.87419  -0.81450  -0.78379  -0.76363
 Alpha  occ. eigenvalues --   -0.72021  -0.71122  -0.67956  -0.63540  -0.61830
 Alpha  occ. eigenvalues --   -0.57509  -0.55971  -0.54053  -0.52584  -0.51201
 Alpha  occ. eigenvalues --   -0.49873  -0.49750  -0.48023  -0.47878  -0.47004
 Alpha  occ. eigenvalues --   -0.45787  -0.44571  -0.43773  -0.42857  -0.42117
 Alpha  occ. eigenvalues --   -0.41174  -0.40389  -0.38776  -0.37917  -0.37384
 Alpha  occ. eigenvalues --   -0.36176  -0.34839  -0.34331  -0.34041  -0.32162
 Alpha  occ. eigenvalues --   -0.28113  -0.27831  -0.23445  -0.21837
 Alpha virt. eigenvalues --   -0.07323  -0.01445  -0.00826   0.00305   0.00809
 Alpha virt. eigenvalues --    0.01228   0.01419   0.01930   0.03067   0.03749
 Alpha virt. eigenvalues --    0.03777   0.04521   0.04868   0.05915   0.06361

 Mulliken charges:
               1
     1  C    0.006104
     2  C    0.283697
     3  C    0.024411
     4  C   -0.280843
     5  C   -0.374839
     6  C    0.241362
     7  O   -0.530535
     8  O   -0.362690
     9  C   -0.103618
    10  O   -0.374990
    11  C   -0.158049
    12  C    0.301906
    13  C   -0.641838
    14  C    0.801760
    15  O   -0.466851
    16  O   -0.519175
    17  H    0.122177
    18  H    0.122905
    19  H    0.357392
    20  H    0.151751
    21  H    0.146291
    22  H    0.146285
    23  H    0.164200
    24  H    0.144290
    25  H    0.144099
    26  H    0.150849
    27  H    0.131935
    28  H    0.372015
 Sum of Mulliken charges =  -0.00000

 Dipole moment (field-independent basis, Debye):
    X=              3.7302    Y=             -1.6670    Z=              0.0023  Tot=              4.0858
 Quadrupole moment (field-independent basis, Debye-Ang):
   XX=            -93.0656   YY=            -80.7256   ZZ=            -96.5379
   XY=             -3.3085   XZ=              0.0161   YZ=             -0.0040

  Exact polarizability: 257.949   2.148 172.907   0.014   0.012  86.035
 Approx polarizability: 370.521  11.807 262.085   0.018   0.022 128.962

 ******    1 imaginary frequencies (negative Signs) ******

                      1                      2                      3
                      A                      A                      A
 Frequencies --   -123.7099                31.0642                62.7886
 Red. masses --      2.3020                 6.9487                 5.7865
 Frc consts  --      0.0208                 0.0040                 0.0134
 IR Inten    --      0.6171                 1.8839                 0.0538

                      4                      5                      6
                      A                      A                      A
 Frequencies --     70.6835                76.4884               104.7167
 Red. masses --      5.9905                 3.3119                 1.3748
 Frc consts  --      0.0176                 0.0114                 0.0089
 IR Inten    --      0.1456                 0.0296                74.8820

                      7                      8                      9
                      A                      A                      A
 Frequencies --    134.1860               149.4540               186.0572
 Red. masses --      4.2975                 3.7244                 4.2199
 Frc consts  --      0.0456                 0.0490                 0.0861
 IR Inten    --      5.8901                 0.3698                 4.2696

                     10                     11                     12
                      A                      A                      A
 Frequencies --    203.2791               215.9638               243.4887
 Red. masses --      5.7770                 2.1085                 2.0927
 Frc consts  --      0.1406                 0.0579                 0.0731
 IR Inten    --      0.5891                 1.3286                 0.4018

                     13                     14                     15
                      A                      A                      A
 Frequencies --    256.1119               292.0580               305.4487
 Red. masses --      4.6306                 1.9564                 1.0740
 Frc consts  --      0.1790                 0.0983                 0.0590
 IR Inten    --      0.1781                 0.6789                 9.0043

                     16                     17                     18
                      A                      A                      A
 Frequencies --    323.5545               338.9155               390.6779
 Red. masses --      4.7759                 5.4979                 4.5498
 Frc consts  --      0.2946                 0.3721                 0.4091
 IR Inten    --      4.6615                 0.6913                 0.6743

                     19                     20                     21
                      A                      A                      A
 Frequencies --    405.5877               467.6530               500.3639
 Red. masses --      4.4212                 6.1970                 6.1536
 Frc consts  --      0.4285                 0.7985                 0.9077
 IR Inten    --      2.3068                21.4767                 8.1570

                     22                     23                     24
                      A                      A                      A
 Frequencies --    538.5162               567.2060               573.6440
 Red. masses --      5.3273                 2.2917                 2.7108
 Frc consts  --      0.9102                 0.4344                 0.5256
 IR Inten    --      4.5379                15.1791                13.9163

                     25                     26                     27
                      A                      A                      A
 Frequencies --    581.5216               616.0740               659.2789
 Red. masses --      5.6194                 1.8362                 4.7611
 Frc consts  --      1.1196                 0.4106                 1.2193
 IR Inten    --     64.6430                78.1077                14.5519

                     28                     29                     30
                      A                      A                      A
 Frequencies --    715.0744               716.3494               747.1584
 Red. masses --      6.2472                 4.5525                 3.9855
 Frc consts  --      1.8821                 1.3764                 1.3109
 IR Inten    --      0.0086                 9.0607                17.2721

                     31                     32                     33
                      A                      A                      A
 Frequencies --    810.0846               837.0125               859.0746
 Red. masses --      5.8645                 1.4956                 1.4631
 Frc consts  --      2.2675                 0.6174                 0.6362
 IR Inten    --      6.5922                40.1465                12.8242

                     34                     35                     36
                      A                      A                      A
 Frequencies --    886.1056               921.7467               972.3989
 Red. masses --      2.0331                 5.2244                 4.0353
 Frc consts  --      0.9406                 2.6152                 2.2481
 IR Inten    --     10.2815                10.1745                16.5314

                     37                     38                     39
                      A                      A                      A
 Frequencies --    994.6046              1022.7764              1086.8449
 Red. masses --      4.7139                 1.1652                 3.7442
 Frc consts  --      2.7475                 0.7181                 2.6058
 IR Inten    --     26.1470                30.5903                24.3478

                     40                     41                     42
                      A                      A                      A
 Frequencies --   1118.8218              1137.4263              1157.7017
 Red. masses --      2.6692                 2.5305                 1.2525
 Frc consts  --      1.9686                 1.9289                 0.9890
 IR Inten    --    210.9946               731.0343                 1.4250

                     43                     44                     45
                      A                      A                      A
 Frequencies --   1171.9463              1182.1731              1204.1667
 Red. masses --      1.2723                 2.0224                 1.4084
 Frc consts  --      1.0296                 1.6652                 1.2032
 IR Inten    --      1.1753                 0.7218                51.3185

                     46                     47                     48
                      A                      A                      A
 Frequencies --   1211.4018              1244.5964              1260.6410
 Red. masses --      1.4656                 2.4160                 1.9280
 Frc consts  --      1.2672                 2.2050                 1.8053
 IR Inten    --      0.4120               270.5938               127.2829

                     49                     50                     51
                      A                      A                      A
 Frequencies --   1269.1805              1285.1716              1334.9153
 Red. masses --      1.6196                 1.8178                 1.6724
 Frc consts  --      1.5371                 1.7690                 1.7559
 IR Inten    --     66.9712                31.1768               121.5316

                     52                     53                     54
                      A                      A                      A
 Frequencies --   1353.2139              1385.7737              1400.9678
 Red. masses --      1.9534                 3.2486                 5.4331
 Frc consts  --      2.1075                 3.6756                 6.2828
 IR Inten    --     38.5615               170.6616               214.2967

                     55                     56                     57
                      A                      A                      A
 Frequencies --   1452.9002              1483.8022              1489.0077
 Red. masses --      2.1213                 1.3283                 1.5068
 Frc consts  --      2.6382                 1.7231                 1.9684
 IR Inten    --     98.7473                32.7657                41.0198

                     58                     59                     60
                      A                      A                      A
 Frequencies --   1499.0352              1508.7244              1514.4997
 Red. masses --      1.0461                 1.0772                 1.0500
 Frc consts  --      1.3850                 1.4447                 1.4190
 IR Inten    --      8.7389                51.7752                 7.0118

                     61                     62                     63
                      A                      A                      A
 Frequencies --   1519.9652              1536.9979              1624.1872
 Red. masses --      1.0493                 4.3735                 6.2584
 Frc consts  --      1.4283                 6.0873                 9.7271
 IR Inten    --     38.5517               281.6204               188.9740

                     64                     65                     66
                      A                      A                      A
 Frequencies --   1638.9166              1684.6453              1778.9290
 Red. masses --      5.9751                 5.8171                 8.6113
 Frc consts  --      9.4561                 9.7270                16.0559
 IR Inten    --     68.3153               398.0530               340.0437

                     67                     68                     69
                      A                      A                      A
 Frequencies --   2993.1969              3018.6166              3060.4127
 Red. masses --      1.0368                 1.0342                 1.1076
 Frc consts  --      5.4729                 5.5522                 6.1124
 IR Inten    --     60.0421                53.9161                33.1621

                     70                     71                     72
                      A                      A                      A
 Frequencies --   3083.0057              3139.8291              3154.2529
 Red. masses --      1.1064                 1.0950                 1.1000
 Frc consts  --      6.1959                 6.3604                 6.4479
 IR Inten    --     36.4470                17.5006                21.5594

                     73                     74                     75
                      A                      A                      A
 Frequencies --   3167.1500              3211.9848              3222.6749
 Red. masses --      1.0891                 1.0909                 1.0898
 Frc consts  --      6.4366                 6.6312                 6.6683
 IR Inten    --      1.3887                 3.6603                 2.5940

                     76                     77                     78
                      A                      A                      A
 Frequencies --   3228.4034              3766.3053              3901.3403
 Red. masses --      1.0899                 1.0644                 1.0653
 Frc consts  --      6.6927                 8.8959                 9.5535
 IR Inten    --      3.4008               111.1875               182.3334

 - Thermochemistry -
 -------------------
 Temperature   298.150 Kelvin.  Pressure   1.00000 Atm.
 Atom     1 has atomic number  6 and mass  12.00000

 Molecular mass:   224.06847 amu.
 Principal axes and moments of inertia in atomic units:
                           1         2         3
     Eigenvalues --  2341.054487043.749989361.38777
           X            0.99999  -0.00493  -0.00005
           Y            0.00493   0.99999  -0.00013
           Z            0.00005   0.00013   1.00000
 This molecule is an asymmetric top.
 Rotational symmetry number  1.
 Warning -- assumption of classical behavior for rotation
           may cause significant error
 Rotational temperatures (Kelvin)      0.03700     0.01230     0.00925
 Rotational constants (GHZ):           0.77091     0.25622     0.19279
    1 imaginary frequencies ignored.
 Zero-point vibrational energy     569786.7 (Joules/Mol)
                                  136.18228 (Kcal/Mol)
 Warning -- explicit consideration of  25 degrees of freedom as
           vibrations may cause significant error
 Vibrational temperatures:     44.69    90.34   101.70   110.05   150.66
          (Kelvin)            193.06   215.03   267.69   292.47   310.72
                              350.33   368.49   420.21   439.47   465.52
                              487.62   562.10   583.55   672.85   719.91
                              774.80   816.08   825.34   836.68   886.39
                              948.55  1028.83  1030.67  1074.99  1165.53
                             1204.27  1236.02  1274.91  1326.19  1399.06
                             1431.01  1471.55  1563.73  1609.73  1636.50
                             1665.67  1686.17  1700.88  1732.53  1742.93
                             1790.69  1813.78  1826.07  1849.07  1920.64
                             1946.97  1993.82  2015.68  2090.40  2134.86
                             2142.35  2156.77  2170.72  2179.02  2186.89
                             2211.39  2336.84  2358.03  2423.83  2559.48
                             4306.54  4343.11  4403.25  4435.75  4517.51
                             4538.26  4556.82  4621.32  4636.70  4644.95
                             5418.87  5613.15

 Zero-point correction=                           0.217020 (Hartree/Particle)
 Thermal correction to Energy=                    0.232535
 Thermal correction to Enthalpy=                  0.233479
 Thermal correction to Gibbs Free Energy=         0.173271
 Sum of electronic and zero-point Energies=           -802.310667
 Sum of electronic and thermal Energies=              -802.295153
 Sum of electronic and thermal Enthalpies=            -802.294208
 Sum of electronic and thermal Free Energies=         -802.354416

                     E (Thermal)             CV                S
                      KCal/Mol        Cal/Mol-Kelvin    Cal/Mol-Kelvin
 Total                  145.918             57.124            126.718
 Electronic               0.000              0.000              0.000
 Translational            0.889              2.981             42.123
 Rotational               0.889              2.981             33.401
 Vibrational            144.140             51.162             51.194
 Vibration     1          0.594              1.983              5.760
 Vibration     2          0.597              1.972              4.368
 Vibration     3          0.598              1.968              4.134
 Vibration     4          0.599              1.965              3.979
 Vibration     5          0.605              1.945              3.365
 Vibration     6          0.613              1.919              2.885
 Vibration     7          0.618              1.903              2.679
 Vibration     8          0.632              1.859              2.267
 Vibration     9          0.639              1.835              2.103
 Vibration    10          0.645              1.817              1.993
 Vibration    11          0.659              1.774              1.777
 Vibration    12          0.666              1.752              1.688
 Vibration    13          0.687              1.689              1.462
 Vibration    14          0.696              1.663              1.387
 Vibration    15          0.708              1.628              1.292
 Vibration    16          0.719              1.598              1.217
 Vibration    17          0.758              1.490              0.998
 Vibration    18          0.771              1.458              0.942
 Vibration    19          0.825              1.322              0.744
 Vibration    20          0.856              1.249              0.657
 Vibration    21          0.894              1.165              0.568
 Vibration    22          0.923              1.102              0.510
 Vibration    23          0.930              1.088              0.497
 Vibration    24          0.938              1.071              0.483
 Vibration    25          0.976              0.998              0.423

 Normal termination of Gaussian 09 at Wed Jun 19 14:11:21 2024.
