 Gaussian 09, Revision E.01,
 Gaussian 09:  ES64L-G09RevE.01 30-Nov-2015

 ----------------------------
 # opt freq b3lyp/6-31+g(d,p)
 ----------------------------

 ----------
 [No Title]
 ----------
 Symbolic Z-matrix:
 Charge =  1 Multiplicity = 1

 SCF Done:  E(RB3LYP) =  -802.828141066     A.U. after   16 cycles
 SCF Done:  E(RB3LYP) =  -802.874986115     A.U. after   14 cycles
 SCF Done:  E(RB3LYP) =  -802.885090004     A.U. after   14 cycles
 SCF Done:  E(RB3LYP) =  -802.886705881     A.U. after   13 cycles
 SCF Done:  E(RB3LYP) =  -802.888097312     A.U. after   13 cycles
 SCF Done:  E(RB3LYP) =  -802.889306859     A.U. after   14 cycles
 SCF Done:  E(RB3LYP) =  -802.890147824     A.U. after   17 cycles
 SCF Done:  E(RB3LYP) =  -802.892140218     A.U. after   13 cycles
 SCF Done:  E(RB3LYP) =  -802.892722134     A.U. after   12 cycles
 SCF Done:  E(RB3LYP) =  -802.893153131     A.U. after   13 cycles
 SCF Done:  E(RB3LYP) =  -802.893256874     A.U. after   12 cycles
 SCF Done:  E(RB3LYP) =  -802.893303334     A.U. after   11 cycles
 SCF Done:  E(RB3LYP) =  -802.893312131     A.U. after   10 cycles
 SCF Done:  E(RB3LYP) =  -802.893314921     A.U. after   10 cycles
 SCF Done:  E(RB3LYP) =  -802.893317289     A.U. after   10 cycles
 SCF Done:  E(RB3LYP) =  -802.893318934     A.U. after   10 cycles
 SCF Done:  E(RB3LYP) =  -802.893319766     A.U. after   10 cycles
 SCF Done:  E(RB3LYP) =  -802.893319994     A.U. after    9 cycles
 SCF Done:  E(RB3LYP) =  -802.893320051     A.U. after    9 cycles
 Optimization completed.
    -- Stationary point found.
 Normal termination of Gaussian 09 at Thu Jun 20 11:26:25 2024.

 ----------------------------------------------------------------------
 #N Geom=AllCheck Guess=TCheck SCRF=Check GenChk RB3LYP/6-31+G(d,p) Fre
 q
 ----------------------------------------------------------------------

 Structure from the checkpoint file:  "b3lypSAyanggd3.chk"
 ----------
 [No Title]
 ----------
 Charge =  1 Multiplicity = 1

                         Standard orientation:
 ---------------------------------------------------------------------
 Center     Atomic      Atomic             Coordinates (Angstroms)
 Number     Number       Type             X           Y           Z
 ---------------------------------------------------------------------
      1          6           0        2.403464   -0.201213   -0.001190
      2          6           0        1.929454    1.137626    0.006668
      3          6           0        0.559877    1.353499    0.011423
      4          6           0       -0.359937    0.263997    0.008829
      5          6           0        0.130023   -1.074387   -0.002110
      6          6           0        1.491010   -1.295490   -0.005319
      7          8           0        3.712449   -0.417787   -0.005500
      8          8           0        2.889235    2.079945    0.008689
      9          6           0        2.503529    3.458695    0.017661
     10          8           0        2.125696   -2.494895   -0.014091
     11          6           0        1.348352   -3.700938   -0.018953
     12          6           0       -1.739293    0.571600    0.013020
     13          6           0       -2.810420   -0.321264    0.016962
     14          6           0       -4.126211    0.114520   -0.001475
     15          8           0       -5.095099   -0.785215    0.110963
     16          8           0       -4.423130    1.403276   -0.139545
     17          1           0        0.169798    2.363964    0.017522
     18          1           0       -0.556888   -1.909991   -0.007206
     19          1           0        3.879738   -1.377955   -0.011360
     20          1           0        3.436758    4.019760    0.018284
     21          1           0        1.924689    3.708079   -0.878842
     22          1           0        1.929695    3.697716    0.920188
     23          1           0        2.071003   -4.515336   -0.025815
     24          1           0        0.730006   -3.762047    0.882685
     25          1           0        0.724868   -3.751638   -0.917693
     26          1           0       -1.991125    1.629857    0.011667
     27          1           0       -2.677658   -1.395434    0.036158
     28          1           0       -5.974241   -0.468956   -0.152558
     29          1           0       -5.318929    1.639514    0.149733
 ---------------------------------------------------------------------

 SCF Done:  E(RB3LYP) =  -802.893320051     A.U. after    1 cycles

 The electronic state is 1-A.
 Alpha  occ. eigenvalues --  -19.38614 -19.38491 -19.33140 -19.32691 -19.30704
 Alpha  occ. eigenvalues --  -10.51035 -10.41013 -10.39766 -10.39114 -10.37801
 Alpha  occ. eigenvalues --  -10.36398 -10.35275 -10.35126 -10.34884 -10.34051
 Alpha  occ. eigenvalues --  -10.33825  -1.30739  -1.23172  -1.23088  -1.20153
 Alpha  occ. eigenvalues --   -1.18839  -1.00766  -0.96872  -0.91410  -0.89965
 Alpha  occ. eigenvalues --   -0.85230  -0.84450  -0.81319  -0.79333  -0.77964
 Alpha  occ. eigenvalues --   -0.73886  -0.71320  -0.70187  -0.67661  -0.65589
 Alpha  occ. eigenvalues --   -0.64165  -0.63544  -0.62932  -0.61127  -0.60594
 Alpha  occ. eigenvalues --   -0.60112  -0.58650  -0.57820  -0.55630  -0.55166
 Alpha  occ. eigenvalues --   -0.55030  -0.54533  -0.53354  -0.52733  -0.52191
 Alpha  occ. eigenvalues --   -0.50536  -0.49525  -0.47902  -0.47820  -0.46354
 Alpha  occ. eigenvalues --   -0.45608  -0.41937  -0.36517  -0.34587
 Alpha virt. eigenvalues --   -0.24511  -0.15895  -0.14070  -0.12491  -0.10455
 Alpha virt. eigenvalues --   -0.10176  -0.10046  -0.09152  -0.07669  -0.07216
 Alpha virt. eigenvalues --   -0.06689  -0.06418  -0.05794  -0.04982  -0.04869

 Mulliken charges:
               1
     1  C   -0.147572
     2  C    0.626460
     3  C   -0.085482
     4  C   -0.395118
     5  C   -0.209688
     6  C    0.361874
     7  O   -0.459098
     8  O   -0.356110
     9  C   -0.097908
    10  O   -0.449742
    11  C   -0.102474
    12  C    0.154031
    13  C   -0.663972
    14  C    0.915901
    15  O   -0.416698
    16  O   -0.461998
    17  H    0.141807
    18  H    0.127109
    19  H    0.426794
    20  H    0.179213
    21  H    0.155550
    22  H    0.155262
    23  H    0.178558
    24  H    0.161926
    25  H    0.161804
    26  H    0.166647
    27  H    0.156642
    28  H    0.387188
    29  H    0.389094
 Sum of Mulliken charges =   1.00000

 Dipole moment (field-independent basis, Debye):
    X=             -9.6359    Y=              0.0289    Z=              0.0442  Tot=              9.6360
 Quadrupole moment (field-independent basis, Debye-Ang):
   XX=            -11.7547   YY=            -56.2677   ZZ=            -94.3791
   XY=            -11.1011   XZ=              0.1528   YZ=              1.4710

  Exact polarizability: 341.029  -7.291 168.479  -0.099  -0.208  81.675
 Approx polarizability: 681.965 -29.536 240.585  -0.842  -0.870 122.936

                      1                      2                      3
                      A                      A                      A
 Frequencies --     48.3843                58.8865                66.8874
 Red. masses --      6.2972                 5.2570                 3.3019
 Frc consts  --      0.0087                 0.0107                 0.0087
 IR Inten    --      0.6872                 0.5714                 8.7260

                      4                      5                      6
                      A                      A                      A
 Frequencies --     72.4777               108.9405               143.3071
 Red. masses --      5.0910                 3.6588                 5.5839
 Frc consts  --      0.0158                 0.0256                 0.0676
 IR Inten    --      0.6216                 0.1106                 1.0953

                      7                      8                      9
                      A                      A                      A
 Frequencies --    169.5472               179.4384               190.2600
 Red. masses --      3.8101                 2.8050                 1.3817
 Frc consts  --      0.0645                 0.0532                 0.0295
 IR Inten    --      3.2079                11.7662                 3.8293

                     10                     11                     12
                      A                      A                      A
 Frequencies --    195.9020               231.9691               244.0614
 Red. masses --      3.5621                 1.2861                 4.9751
 Frc consts  --      0.0805                 0.0408                 0.1746
 IR Inten    --     11.3137                10.8817                 3.3078

                     13                     14                     15
                      A                      A                      A
 Frequencies --    259.4482               287.0596               308.1149
 Red. masses --      1.8681                 1.5414                 5.4603
 Frc consts  --      0.0741                 0.0748                 0.3054
 IR Inten    --     56.9407               146.2764                25.1551

                     16                     17                     18
                      A                      A                      A
 Frequencies --    338.4332               357.4045               373.5267
 Red. masses --      2.4433                 4.4253                 4.4764
 Frc consts  --      0.1649                 0.3331                 0.3680
 IR Inten    --     68.2731                 2.3336                 0.4589

                     19                     20                     21
                      A                      A                      A
 Frequencies --    402.9082               414.0560               496.9372
 Red. masses --      1.2126                 3.0334                 6.1916
 Frc consts  --      0.1160                 0.3064                 0.9009
 IR Inten    --    237.4528                18.9272                 9.6360

                     22                     23                     24
                      A                      A                      A
 Frequencies --    526.8004               528.8613               556.6435
 Red. masses --      6.7217                 4.9343                 2.5317
 Frc consts  --      1.0991                 0.8131                 0.4622
 IR Inten    --      1.1458                25.3172                22.1781

                     25                     26                     27
                      A                      A                      A
 Frequencies --    578.9626               585.0784               611.9182
 Red. masses --      3.7400                 3.7417                 1.3552
 Frc consts  --      0.7386                 0.7546                 0.2990
 IR Inten    --     11.3570                 6.6454                80.7598

                     28                     29                     30
                      A                      A                      A
 Frequencies --    668.8362               683.5611               709.9378
 Red. masses --      4.4057                 4.9237                 5.0574
 Frc consts  --      1.1612                 1.3555                 1.5018
 IR Inten    --      0.9232                 8.5173                52.8141

                     31                     32                     33
                      A                      A                      A
 Frequencies --    728.0169               834.8241               835.8733
 Red. masses --      9.7472                 1.5837                 5.1536
 Frc consts  --      3.0438                 0.6503                 2.1215
 IR Inten    --      0.1810                 4.9687                 2.5171

                     34                     35                     36
                      A                      A                      A
 Frequencies --    851.1991               868.0016               927.7456
 Red. masses --      1.3507                 1.5208                 5.4400
 Frc consts  --      0.5766                 0.6751                 2.7587
 IR Inten    --     39.4966                22.1758                 4.6117

                     37                     38                     39
                      A                      A                      A
 Frequencies --    981.7231               993.5469              1009.7819
 Red. masses --      5.0465                 1.3196                 4.3761
 Frc consts  --      2.8656                 0.7675                 2.6290
 IR Inten    --    212.1068                23.2976                26.7778

                     40                     41                     42
                      A                      A                      A
 Frequencies --   1058.0876              1143.3929              1146.1520
 Red. masses --      4.4953                 2.1730                 1.3699
 Frc consts  --      2.9652                 1.6738                 1.0603
 IR Inten    --      2.5975               242.2402               310.8082

                     43                     44                     45
                      A                      A                      A
 Frequencies --   1160.9392              1169.7734              1172.3054
 Red. masses --      1.5501                 1.2674                 1.2613
 Frc consts  --      1.2309                 1.0218                 1.0213
 IR Inten    --   1039.8679                 1.3961                 0.8350

                     46                     47                     48
                      A                      A                      A
 Frequencies --   1203.7815              1207.7371              1227.2616
 Red. masses --      1.4470                 1.3601                 1.7869
 Frc consts  --      1.2354                 1.1689                 1.5857
 IR Inten    --      2.7400                 4.1868                37.8909

                     49                     50                     51
                      A                      A                      A
 Frequencies --   1259.6538              1281.9866              1302.6641
 Red. masses --      1.9360                 1.7650                 1.6419
 Frc consts  --      1.8100                 1.7091                 1.6415
 IR Inten    --    361.9823                23.7566               277.3131

                     52                     53                     54
                      A                      A                      A
 Frequencies --   1328.0423              1346.3314              1388.2155
 Red. masses --      1.6030                 3.3691                 2.9294
 Frc consts  --      1.6658                 3.5980                 3.3262
 IR Inten    --      0.9225                71.5349               414.1099

                     55                     56                     57
                      A                      A                      A
 Frequencies --   1419.0769              1461.8889              1474.9706
 Red. masses --      4.5126                 3.9403                 1.3104
 Frc consts  --      5.3541                 4.9615                 1.6796
 IR Inten    --    797.2075               342.3163                26.9807

                     58                     59                     60
                      A                      A                      A
 Frequencies --   1487.9386              1498.5170              1500.4917
 Red. masses --      1.3574                 1.0456                 1.0461
 Frc consts  --      1.7707                 1.3833                 1.3877
 IR Inten    --     47.6226                13.0252                13.6182

                     61                     62                     63
                      A                      A                      A
 Frequencies --   1501.4745              1501.9899              1516.1013
 Red. masses --      1.0577                 1.0836                 3.7235
 Frc consts  --      1.4049                 1.4403                 5.0427
 IR Inten    --     57.6137               108.9549               351.7813

                     64                     65                     66
                      A                      A                      A
 Frequencies --   1533.6136              1600.7349              1617.1630
 Red. masses --      4.4270                 4.3739                 5.3535
 Frc consts  --      6.1347                 6.6033                 8.2490
 IR Inten    --    556.5322                73.7468               412.1597

                     67                     68                     69
                      A                      A                      A
 Frequencies --   1630.9409              1667.8036              3032.6472
 Red. masses --      4.3122                 5.2094                 1.0340
 Frc consts  --      6.7582                 8.5375                 5.6028
 IR Inten    --    544.0693               817.1384                30.2344

                     70                     71                     72
                      A                      A                      A
 Frequencies --   3041.9559              3105.6773              3118.8909
 Red. masses --      1.0330                 1.1077                 1.1083
 Frc consts  --      5.6317                 6.2948                 6.3522
 IR Inten    --     23.3093                24.1602                18.8894

                     73                     74                     75
                      A                      A                      A
 Frequencies --   3180.2604              3183.3976              3185.5696
 Red. masses --      1.1010                 1.1024                 1.0897
 Frc consts  --      6.5609                 6.5819                 6.5153
 IR Inten    --      5.9167                 4.6585                 0.8510

                     76                     77                     78
                      A                      A                      A
 Frequencies --   3231.5189              3238.0928              3248.3767
 Red. masses --      1.0906                 1.0909                 1.0894
 Frc consts  --      6.7100                 6.7392                 6.7731
 IR Inten    --      1.6876                 2.5280                 0.1994

                     79                     80                     81
                      A                      A                      A
 Frequencies --   3712.0369              3772.0186              3781.3455
 Red. masses --      1.0650                 1.0679                 1.0661
 Frc consts  --      8.6465                 8.9519                 8.9810
 IR Inten    --    351.3564                60.2716               624.3320

 - Thermochemistry -
 -------------------
 Temperature   298.150 Kelvin.  Pressure   1.00000 Atm.
 Atom     1 has atomic number  6 and mass  12.00000

 Molecular mass:   225.07630 amu.
 Principal axes and moments of inertia in atomic units:
                           1         2         3
     Eigenvalues --  2551.557626616.631569140.73393
           X            0.99999   0.00344   0.00002
           Y           -0.00344   0.99999   0.00114
           Z           -0.00001  -0.00114   1.00000
 This molecule is an asymmetric top.
 Rotational symmetry number  1.
 Warning -- assumption of classical behavior for rotation
           may cause significant error
 Rotational temperatures (Kelvin)      0.03395     0.01309     0.00948
 Rotational constants (GHZ):           0.70731     0.27276     0.19744
 Zero-point vibrational energy     604533.3 (Joules/Mol)
                                  144.48693 (Kcal/Mol)
 Warning -- explicit consideration of  27 degrees of freedom as
           vibrations may cause significant error
 Vibrational temperatures:     69.61    84.72    96.24   104.28   156.74
          (Kelvin)            206.19   243.94   258.17   273.74   281.86
                              333.75   351.15   373.29   413.01   443.31
                              486.93   514.22   537.42   579.69   595.73
                              714.98   757.95   760.91   800.88   833.00
                              841.80   880.41   962.30   983.49  1021.44
                             1047.45  1201.12  1202.63  1224.68  1248.86
                             1334.82  1412.48  1429.49  1452.85  1522.35
                             1645.09  1649.06  1670.33  1683.04  1686.68
                             1731.97  1737.66  1765.75  1812.36  1844.49
                             1874.24  1910.75  1937.07  1997.33  2041.73
                             2103.33  2122.15  2140.81  2156.03  2158.87
                             2160.28  2161.03  2181.33  2206.53  2303.10
                             2326.73  2346.56  2399.59  4363.30  4376.69
                             4468.37  4487.38  4575.68  4580.19  4583.32
                             4649.43  4658.89  4673.68  5340.79  5427.09
                             5440.51

 Zero-point correction=                           0.230255 (Hartree/Particle)
 Thermal correction to Energy=                    0.246541
 Thermal correction to Enthalpy=                  0.247485
 Thermal correction to Gibbs Free Energy=         0.186305
 Sum of electronic and zero-point Energies=           -802.663065
 Sum of electronic and thermal Energies=              -802.646779
 Sum of electronic and thermal Enthalpies=            -802.645835
 Sum of electronic and thermal Free Energies=         -802.707015

                     E (Thermal)             CV                S
                      KCal/Mol        Cal/Mol-Kelvin    Cal/Mol-Kelvin
 Total                  154.707             60.458            128.765
 Electronic               0.000              0.000              0.000
 Translational            0.889              2.981             42.136
 Rotational               0.889              2.981             33.400
 Vibrational            152.929             54.497             53.229
 Vibration     1          0.595              1.978              4.882
 Vibration     2          0.596              1.974              4.494
 Vibration     3          0.598              1.970              4.243
 Vibration     4          0.599              1.967              4.085
 Vibration     5          0.606              1.942              3.288
 Vibration     6          0.616              1.910              2.759
 Vibration     7          0.625              1.880              2.441
 Vibration     8          0.629              1.868              2.334
 Vibration     9          0.634              1.853              2.225
 Vibration    10          0.636              1.846              2.171
 Vibration    11          0.653              1.792              1.864
 Vibration    12          0.659              1.773              1.773
 Vibration    13          0.668              1.747              1.665
 Vibration    14          0.684              1.698              1.491
 Vibration    15          0.698              1.658              1.372
 Vibration    16          0.719              1.599              1.220
 Vibration    17          0.733              1.560              1.133
 Vibration    18          0.745              1.526              1.065
 Vibration    19          0.768              1.464              0.952
 Vibration    20          0.778              1.440              0.912
 Vibration    21          0.852              1.257              0.666
 Vibration    22          0.882              1.191              0.594
 Vibration    23          0.884              1.186              0.590
 Vibration    24          0.912              1.125              0.531
 Vibration    25          0.936              1.077              0.487
 Vibration    26          0.942              1.064              0.476
 Vibration    27          0.971              1.007              0.430

 Normal termination of Gaussian 09 at Thu Jun 20 11:29:59 2024.
