 Gaussian 09, Revision E.01,
 Gaussian 09:  ES64L-G09RevE.01 30-Nov-2015

 -----------------------------
 # opt freq b3pw91/6-31+g(d,p)
 -----------------------------

 ----------
 [No Title]
 ----------
 Symbolic Z-matrix:
 Charge =  0 Multiplicity = 1

 SCF Done:  E(RB3PW91) =  -802.212457494     A.U. after   16 cycles
 SCF Done:  E(RB3PW91) =  -802.212844647     A.U. after   12 cycles
 SCF Done:  E(RB3PW91) =  -802.212875559     A.U. after   12 cycles
 SCF Done:  E(RB3PW91) =  -802.212875583     A.U. after   11 cycles
 SCF Done:  E(RB3PW91) =  -802.212882015     A.U. after   11 cycles
 SCF Done:  E(RB3PW91) =  -802.212886181     A.U. after   10 cycles
 SCF Done:  E(RB3PW91) =  -802.212886753     A.U. after    9 cycles
 SCF Done:  E(RB3PW91) =  -802.212891223     A.U. after   10 cycles
 SCF Done:  E(RB3PW91) =  -802.184290407     A.U. after   15 cycles
 SCF Done:  E(RB3PW91) =  -802.212893001     A.U. after    8 cycles
 SCF Done:  E(RB3PW91) =  -802.230653758     A.U. after   13 cycles
 SCF Done:  E(RB3PW91) =  -802.230980704     A.U. after   12 cycles
 SCF Done:  E(RB3PW91) =  -802.231013354     A.U. after   11 cycles
 SCF Done:  E(RB3PW91) =  -802.231023632     A.U. after   11 cycles
 SCF Done:  E(RB3PW91) =  -802.231025655     A.U. after   10 cycles
 SCF Done:  E(RB3PW91) =  -802.231026071     A.U. after   10 cycles
 SCF Done:  E(RB3PW91) =  -802.231026200     A.U. after   10 cycles
 SCF Done:  E(RB3PW91) =  -802.231026276     A.U. after    9 cycles
 SCF Done:  E(RB3PW91) =  -802.231026312     A.U. after    8 cycles
 Optimization completed.
    -- Stationary point found.
 Normal termination of Gaussian 09 at Sat Dec 14 15:54:17 2024.

 ----------------------------------------------------------------------
 #N Geom=AllCheck Guess=TCheck SCRF=Check GenChk RB3PW91/6-31+G(d,p) Fr
 eq
 ----------------------------------------------------------------------

 Structure from the checkpoint file:  "B3PW91SA.chk"
 ----------
 [No Title]
 ----------
 Charge =  0 Multiplicity = 1

                         Standard orientation:
 ---------------------------------------------------------------------
 Center     Atomic      Atomic             Coordinates (Angstroms)
 Number     Number       Type             X           Y           Z
 ---------------------------------------------------------------------
      1          6           0       -2.388170   -0.206797    0.000035
      2          6           0       -1.910195    1.112333    0.000010
      3          6           0       -0.533033    1.337412   -0.000004
      4          6           0        0.380699    0.269019   -0.000022
      5          6           0       -0.104059   -1.051265   -0.000028
      6          6           0       -1.473194   -1.274642    0.000012
      7          8           0       -3.718223   -0.439319    0.000078
      8          8           0       -2.861061    2.078459    0.000019
      9          6           0       -2.436589    3.428789   -0.000041
     10          8           0       -2.084538   -2.498224   -0.000008
     11          6           0       -1.269547   -3.658330   -0.000055
     12          6           0        1.800277    0.584534   -0.000022
     13          6           0        2.844090   -0.270582    0.000022
     14          6           0        4.215479    0.247493    0.000014
     15          8           0        5.129845   -0.757822    0.000056
     16          8           0        4.552176    1.418264   -0.000039
     17          1           0       -0.148160    2.351016    0.000026
     18          1           0        0.586946   -1.885143   -0.000104
     19          1           0       -3.843058   -1.400372    0.000010
     20          1           0       -3.349295    4.025761   -0.000097
     21          1           0       -1.849071    3.664993    0.896278
     22          1           0       -1.849024    3.664894   -0.896354
     23          1           0       -0.639749   -3.697661   -0.896868
     24          1           0       -0.639680   -3.697685    0.896706
     25          1           0       -1.954532   -4.506792   -0.000049
     26          1           0        2.052931    1.644712   -0.000054
     27          1           0        2.731252   -1.349843    0.000077
     28          1           0        6.001311   -0.332533    0.000041
 ---------------------------------------------------------------------

 SCF Done:  E(RB3PW91) =  -802.231026312     A.U. after    1 cycles

 The electronic state is 1-A.
 Alpha  occ. eigenvalues --  -19.20547 -19.19138 -19.18794 -19.18722 -19.12940
 Alpha  occ. eigenvalues --  -10.30706 -10.25684 -10.25286 -10.25204 -10.24908
 Alpha  occ. eigenvalues --  -10.23546 -10.20783 -10.20542 -10.19513 -10.19365
 Alpha  occ. eigenvalues --  -10.19063  -1.11139  -1.11060  -1.09116  -1.07231
 Alpha  occ. eigenvalues --   -1.01757  -0.87992  -0.81883  -0.78279  -0.76895
 Alpha  occ. eigenvalues --   -0.73159  -0.71281  -0.68019  -0.62696  -0.61954
 Alpha  occ. eigenvalues --   -0.58205  -0.56121  -0.55090  -0.52146  -0.51696
 Alpha  occ. eigenvalues --   -0.50143  -0.49753  -0.48249  -0.48237  -0.47476
 Alpha  occ. eigenvalues --   -0.46178  -0.44973  -0.43933  -0.43186  -0.42159
 Alpha  occ. eigenvalues --   -0.41828  -0.40046  -0.38503  -0.37372  -0.37152
 Alpha  occ. eigenvalues --   -0.36510  -0.36460  -0.34629  -0.34165  -0.32388
 Alpha  occ. eigenvalues --   -0.28255  -0.28173  -0.24323  -0.21621
 Alpha virt. eigenvalues --   -0.07457  -0.00442   0.00485   0.00701   0.01401
 Alpha virt. eigenvalues --    0.01521   0.02028   0.03469   0.04178   0.04895
 Alpha virt. eigenvalues --    0.05002   0.05970   0.06198   0.07084   0.07399

 Mulliken charges:
               1
     1  C   -0.350895
     2  C    0.358695
     3  C    0.121168
     4  C   -0.468819
     5  C   -0.102605
     6  C    0.235678
     7  O   -0.513078
     8  O   -0.316103
     9  C   -0.146369
    10  O   -0.410160
    11  C   -0.153702
    12  C    0.120259
    13  C   -0.539778
    14  C    0.749715
    15  O   -0.449343
    16  O   -0.502543
    17  H    0.147665
    18  H    0.134584
    19  H    0.407359
    20  H    0.168087
    21  H    0.158633
    22  H    0.158632
    23  H    0.164818
    24  H    0.164819
    25  H    0.167180
    26  H    0.173364
    27  H    0.147903
    28  H    0.374834
 Sum of Mulliken charges =  -0.00000

 Dipole moment (field-independent basis, Debye):
    X=             -1.2236    Y=             -2.5465    Z=             -0.0002  Tot=              2.8252
 Quadrupole moment (field-independent basis, Debye-Ang):
   XX=           -102.9035   YY=            -73.8115   ZZ=            -95.9691
   XY=             -4.8205   XZ=              0.0010   YZ=              0.0004

  Exact polarizability: 253.551  -2.574 174.120   0.003  -0.001  84.456
 Approx polarizability: 385.147  -4.771 256.668  -0.002  -0.001 124.601

                      1                      2                      3
                      A                      A                      A
 Frequencies --     32.4664                59.0600                66.1705
 Red. masses --      6.6569                 3.0421                 6.9235
 Frc consts  --      0.0041                 0.0063                 0.0179
 IR Inten    --      0.3867                 8.6120                 0.0115

                      4                      5                      6
                      A                      A                      A
 Frequencies --     69.2412                94.2891               137.2920
 Red. masses --      5.6994                 3.5695                 3.7599
 Frc consts  --      0.0161                 0.0187                 0.0418
 IR Inten    --      0.4068                 0.0908                 0.0102

                      7                      8                      9
                      A                      A                      A
 Frequencies --    159.4523               173.9950               196.7228
 Red. masses --      4.1497                 4.2084                 4.6096
 Frc consts  --      0.0622                 0.0751                 0.1051
 IR Inten    --      4.0207                 3.9959                 1.6848

                     10                     11                     12
                      A                      A                      A
 Frequencies --    202.3695               234.9419               245.8554
 Red. masses --      1.3710                 1.3088                 5.3209
 Frc consts  --      0.0331                 0.0426                 0.1895
 IR Inten    --      0.0118                 0.2072                 1.1028

                     13                     14                     15
                      A                      A                      A
 Frequencies --    273.1197               293.8479               296.6357
 Red. masses --      2.4065                 2.1202                 6.7304
 Frc consts  --      0.1058                 0.1079                 0.3489
 IR Inten    --      0.1995                 0.0304                 6.3391

                     16                     17                     18
                      A                      A                      A
 Frequencies --    361.9666               374.2142               392.1179
 Red. masses --      4.2609                 4.5622                 4.2249
 Frc consts  --      0.3289                 0.3764                 0.3827
 IR Inten    --      0.6824                 1.0862                 1.1818

                     19                     20                     21
                      A                      A                      A
 Frequencies --    487.6361               498.0988               508.0115
 Red. masses --      1.1168                 6.1492                 5.1423
 Frc consts  --      0.1565                 0.8989                 0.7819
 IR Inten    --     98.1411                 8.9771                25.1835

                     22                     23                     24
                      A                      A                      A
 Frequencies --    537.5430               569.1081               584.6340
 Red. masses --      6.8142                 2.0123                 4.0269
 Frc consts  --      1.1601                 0.3840                 0.8109
 IR Inten    --      1.7998                20.0016                 3.2962

                     25                     26                     27
                      A                      A                      A
 Frequencies --    600.7758               616.3123               668.5411
 Red. masses --      5.2933                 1.6940                 4.1384
 Frc consts  --      1.1256                 0.3791                 1.0898
 IR Inten    --     80.4301                82.1497                10.9178

                     28                     29                     30
                      A                      A                      A
 Frequencies --    710.8786               729.4717               750.1007
 Red. masses --      4.8611                 8.0790                 3.6221
 Frc consts  --      1.4474                 2.5329                 1.2007
 IR Inten    --      6.0072                 0.0717                16.4783

                     31                     32                     33
                      A                      A                      A
 Frequencies --    825.3869               829.1536               840.2105
 Red. masses --      1.4370                 5.5178                 1.5021
 Frc consts  --      0.5768                 2.2351                 0.6248
 IR Inten    --     28.8853                10.8524                29.4687

                     34                     35                     36
                      A                      A                      A
 Frequencies --    878.0958               943.7951               980.5369
 Red. masses --      2.0204                 5.1542                 3.7015
 Frc consts  --      0.9178                 2.7050                 2.0968
 IR Inten    --     12.0229                14.5372                20.2858

                     37                     38                     39
                      A                      A                      A
 Frequencies --   1017.7958              1017.9486              1092.9415
 Red. masses --      1.1724                 3.9859                 4.9910
 Frc consts  --      0.7156                 2.4335                 3.5127
 IR Inten    --     30.9644                 2.8033                 2.2463

                     40                     41                     42
                      A                      A                      A
 Frequencies --   1148.7208              1167.2010              1170.2098
 Red. masses --      2.3692                 3.2371                 1.2767
 Frc consts  --      1.8419                 2.5984                 1.0301
 IR Inten    --    704.7946               243.2940                 0.9287

                     43                     44                     45
                      A                      A                      A
 Frequencies --   1173.1125              1193.7483              1208.7127
 Red. masses --      1.2706                 1.6152                 1.3789
 Frc consts  --      1.0302                 1.3561                 1.1869
 IR Inten    --      0.5242                34.4631                 5.4843

                     46                     47                     48
                      A                      A                      A
 Frequencies --   1217.3406              1257.9769              1263.3438
 Red. masses --      1.5393                 1.8135                 1.5088
 Frc consts  --      1.3440                 1.6909                 1.4188
 IR Inten    --     23.5923               230.2811               110.2747

                     49                     50                     51
                      A                      A                      A
 Frequencies --   1302.3832              1305.9055              1338.6997
 Red. masses --      2.0899                 2.2373                 1.4387
 Frc consts  --      2.0886                 2.2480                 1.5191
 IR Inten    --    117.1490               110.1831                20.2282

                     52                     53                     54
                      A                      A                      A
 Frequencies --   1366.8876              1406.3832              1435.9039
 Red. masses --      2.7387                 4.2004                 3.2630
 Frc consts  --      3.0148                 4.8949                 3.9638
 IR Inten    --    299.1406                68.0119               115.9273

                     55                     56                     57
                      A                      A                      A
 Frequencies --   1465.7480              1486.1203              1491.9954
 Red. masses --      1.4937                 1.3322                 1.0440
 Frc consts  --      1.8908                 1.7335                 1.3693
 IR Inten    --     73.8026                 8.6657                10.2239

                     58                     59                     60
                      A                      A                      A
 Frequencies --   1494.8063              1502.2220              1505.3381
 Red. masses --      1.0447                 2.2782                 1.1163
 Frc consts  --      1.3753                 3.0291                 1.4903
 IR Inten    --     10.0496               106.9012                88.1510

                     61                     62                     63
                      A                      A                      A
 Frequencies --   1506.3685              1565.9436              1645.7681
 Red. masses --      1.0710                 5.1124                 6.3859
 Frc consts  --      1.4319                 7.3863                10.1908
 IR Inten    --     46.9043               353.1080               126.2755

                     64                     65                     66
                      A                      A                      A
 Frequencies --   1660.4441              1693.0651              1798.3739
 Red. masses --      6.2958                 6.2864                 8.9583
 Frc consts  --     10.2270                10.6169                17.0701
 IR Inten    --    216.1563               349.8112               353.3009

                     67                     68                     69
                      A                      A                      A
 Frequencies --   3025.5360              3034.6215              3096.7429
 Red. masses --      1.0343                 1.0333                 1.1063
 Frc consts  --      5.5781                 5.6066                 6.2506
 IR Inten    --     55.2048                43.5288                34.1346

                     70                     71                     72
                      A                      A                      A
 Frequencies --   3109.6580              3169.6715              3173.2579
 Red. masses --      1.1068                 1.1002                 1.1015
 Frc consts  --      6.3061                 6.5125                 6.5348
 IR Inten    --     27.9475                19.4973                16.9754

                     73                     74                     75
                      A                      A                      A
 Frequencies --   3175.0213              3221.5166              3231.4983
 Red. masses --      1.0892                 1.0907                 1.0901
 Frc consts  --      6.4695                 6.6691                 6.7067
 IR Inten    --      0.6866                 5.8692                 3.0069

                     76                     77                     78
                      A                      A                      A
 Frequencies --   3242.6512              3789.5831              3797.8692
 Red. masses --      1.0898                 1.0650                 1.0643
 Frc consts  --      6.7516                 9.0115                 9.0447
 IR Inten    --      3.3516               164.5127               110.1653

 - Thermochemistry -
 -------------------
 Temperature   298.150 Kelvin.  Pressure   1.00000 Atm.
 Atom     1 has atomic number  6 and mass  12.00000

 Molecular mass:   224.06847 amu.
 Principal axes and moments of inertia in atomic units:
                           1         2         3
     Eigenvalues --  2505.332546594.952009077.14133
           X            0.99995  -0.01026   0.00000
           Y            0.01026   0.99995   0.00000
           Z           -0.00000  -0.00000   1.00000
 This molecule is an asymmetric top.
 Rotational symmetry number  1.
 Warning -- assumption of classical behavior for rotation
           may cause significant error
 Rotational temperatures (Kelvin)      0.03457     0.01313     0.00954
 Rotational constants (GHZ):           0.72036     0.27365     0.19882
 Zero-point vibrational energy     575350.5 (Joules/Mol)
                                  137.51206 (Kcal/Mol)
 Warning -- explicit consideration of  26 degrees of freedom as
           vibrations may cause significant error
 Vibrational temperatures:     46.71    84.97    95.20    99.62   135.66
          (Kelvin)            197.53   229.42   250.34   283.04   291.16
                              338.03   353.73   392.96   422.78   426.79
                              520.79   538.41   564.17   701.60   716.65
                              730.91   773.40   818.82   841.16   864.38
                              886.73   961.88  1022.79  1049.55  1079.23
                             1187.55  1192.97  1208.87  1263.38  1357.91
                             1410.77  1464.38  1464.60  1572.50  1652.75
                             1679.34  1683.67  1687.85  1717.54  1739.07
                             1751.48  1809.95  1817.67  1873.84  1878.90
                             1926.09  1966.64  2023.47  2065.94  2108.88
                             2138.19  2146.65  2150.69  2161.36  2165.84
                             2167.33  2253.04  2367.89  2389.01  2435.94
                             2587.46  4353.07  4366.14  4455.52  4474.10
                             4560.44  4565.60  4568.14  4635.04  4649.40
                             4665.45  5452.36  5464.28

 Zero-point correction=                           0.219139 (Hartree/Particle)
 Thermal correction to Energy=                    0.234993
 Thermal correction to Enthalpy=                  0.235937
 Thermal correction to Gibbs Free Energy=         0.174967
 Sum of electronic and zero-point Energies=           -802.011887
 Sum of electronic and thermal Energies=              -801.996034
 Sum of electronic and thermal Enthalpies=            -801.995090
 Sum of electronic and thermal Free Energies=         -802.056059

                     E (Thermal)             CV                S
                      KCal/Mol        Cal/Mol-Kelvin    Cal/Mol-Kelvin
 Total                  147.460             58.229            128.321
 Electronic               0.000              0.000              0.000
 Translational            0.889              2.981             42.123
 Rotational               0.889              2.981             33.372
 Vibrational            145.683             52.268             52.826
 Vibration     1          0.594              1.983              5.673
 Vibration     2          0.596              1.974              4.488
 Vibration     3          0.598              1.970              4.264
 Vibration     4          0.598              1.969              4.175
 Vibration     5          0.603              1.953              3.569
 Vibration     6          0.614              1.916              2.841
 Vibration     7          0.621              1.892              2.556
 Vibration     8          0.627              1.874              2.392
 Vibration     9          0.636              1.844              2.164
 Vibration    10          0.639              1.837              2.111
 Vibration    11          0.655              1.787              1.841
 Vibration    12          0.660              1.770              1.760
 Vibration    13          0.676              1.723              1.576
 Vibration    14          0.689              1.685              1.452
 Vibration    15          0.690              1.680              1.436
 Vibration    16          0.736              1.551              1.114
 Vibration    17          0.745              1.525              1.062
 Vibration    18          0.760              1.487              0.992
 Vibration    19          0.844              1.277              0.690
 Vibration    20          0.854              1.254              0.663
 Vibration    21          0.863              1.232              0.638
 Vibration    22          0.893              1.167              0.571
 Vibration    23          0.925              1.098              0.506
 Vibration    24          0.942              1.065              0.477
 Vibration    25          0.959              1.030              0.448
 Vibration    26          0.976              0.997              0.422

 Optimization completed.
    -- Stationary point found.
 Normal termination of Gaussian 09 at Sat Dec 14 16:00:09 2024.
