 Gaussian 09, Revision E.01,
 Gaussian 09:  ES64L-G09RevE.01 30-Nov-2015

 -----------------------------
 # opt freq b3pw91/6-31+g(d,p)
 -----------------------------

 ----------
 [No Title]
 ----------
 Symbolic Z-matrix:
 Charge =  1 Multiplicity = 1

 SCF Done:  E(RB3PW91) =  -802.580442895     A.U. after   16 cycles
 SCF Done:  E(RB3PW91) =  -802.580733791     A.U. after   12 cycles
 SCF Done:  E(RB3PW91) =  -802.580761749     A.U. after   11 cycles
 SCF Done:  E(RB3PW91) =  -802.580766518     A.U. after   10 cycles
 SCF Done:  E(RB3PW91) =  -802.580770690     A.U. after   10 cycles
 SCF Done:  E(RB3PW91) =  -802.580775493     A.U. after   11 cycles
 SCF Done:  E(RB3PW91) =  -802.580778260     A.U. after   11 cycles
 Optimization completed.
    -- Stationary point found.
 Normal termination of Gaussian 09 at Sat Dec 14 18:33:30 2024.

 ----------------------------------------------------------------------
 #N Geom=AllCheck Guess=TCheck SCRF=Check GenChk RB3PW91/6-31+G(d,p) Fr
 eq
 ----------------------------------------------------------------------

 Structure from the checkpoint file:  "B3PW91SAYang.chk"
 ----------
 [No Title]
 ----------
 Charge =  1 Multiplicity = 1

                         Standard orientation:
 ---------------------------------------------------------------------
 Center     Atomic      Atomic             Coordinates (Angstroms)
 Number     Number       Type             X           Y           Z
 ---------------------------------------------------------------------
      1          6           0        2.399773    0.197409   -0.000930
      2          6           0        1.924415   -1.138293    0.006730
      3          6           0        0.556127   -1.349743    0.010830
      4          6           0       -0.358612   -0.260162    0.007972
      5          6           0        0.131600    1.074679   -0.002531
      6          6           0        1.491080    1.291807   -0.005278
      7          8           0        3.703759    0.413102   -0.004856
      8          8           0        2.878740   -2.078506    0.009017
      9          6           0        2.484923   -3.447013    0.017284
     10          8           0        2.128240    2.483546   -0.013832
     11          6           0        1.354202    3.682445   -0.018837
     12          6           0       -1.736436   -0.565825    0.011892
     13          6           0       -2.803912    0.326551    0.017270
     14          6           0       -4.118381   -0.110782   -0.000863
     15          8           0       -5.083118    0.786492    0.107872
     16          8           0       -4.409895   -1.395578   -0.135692
     17          1           0        0.163505   -2.360210    0.016650
     18          1           0       -0.553596    1.912774   -0.008157
     19          1           0        3.865395    1.372907   -0.010667
     20          1           0        3.412809   -4.017274    0.018279
     21          1           0        1.909223   -3.683977    0.919440
     22          1           0        1.905173   -3.693735   -0.879646
     23          1           0        2.074260    4.499404   -0.024791
     24          1           0        0.731210    3.734728   -0.918107
     25          1           0        0.734880    3.744538    0.882345
     26          1           0       -1.989511   -1.624591    0.009551
     27          1           0       -2.672137    1.401240    0.037453
     28          1           0       -5.962609    0.465381   -0.140424
     29          1           0       -5.309102   -1.630060    0.136774
 ---------------------------------------------------------------------

 SCF Done:  E(RB3PW91) =  -802.580778260     A.U. after    1 cycles

 The electronic state is 1-A.
 Alpha  occ. eigenvalues --  -19.37684 -19.37557 -19.32130 -19.31942 -19.29903
 Alpha  occ. eigenvalues --  -10.49632 -10.39561 -10.38368 -10.37699 -10.36452
 Alpha  occ. eigenvalues --  -10.34867 -10.33965 -10.33738 -10.33342 -10.32691
 Alpha  occ. eigenvalues --  -10.32467  -1.31535  -1.23846  -1.23830  -1.20953
 Alpha  occ. eigenvalues --   -1.19597  -1.01221  -0.97297  -0.91811  -0.90362
 Alpha  occ. eigenvalues --   -0.85615  -0.84829  -0.81607  -0.79836  -0.78249
 Alpha  occ. eigenvalues --   -0.74063  -0.71539  -0.70469  -0.67925  -0.65913
 Alpha  occ. eigenvalues --   -0.64458  -0.63937  -0.63188  -0.61245  -0.60940
 Alpha  occ. eigenvalues --   -0.60147  -0.58924  -0.57964  -0.55715  -0.55225
 Alpha  occ. eigenvalues --   -0.55184  -0.54767  -0.53328  -0.52946  -0.52122
 Alpha  occ. eigenvalues --   -0.50783  -0.49460  -0.47966  -0.47876  -0.46467
 Alpha  occ. eigenvalues --   -0.45658  -0.42075  -0.36611  -0.34627
 Alpha virt. eigenvalues --   -0.24504  -0.14709  -0.13932  -0.12380  -0.09250
 Alpha virt. eigenvalues --   -0.09139  -0.08905  -0.08082  -0.07274  -0.06103
 Alpha virt. eigenvalues --   -0.05560  -0.05254  -0.04634  -0.03854  -0.03722

 Mulliken charges:
               1
     1  C   -0.299626
     2  C    0.401095
     3  C    0.101343
     4  C   -0.344179
     5  C   -0.101536
     6  C    0.257461
     7  O   -0.438110
     8  O   -0.304122
     9  C   -0.142817
    10  O   -0.401619
    11  C   -0.150735
    12  C    0.067387
    13  C   -0.628727
    14  C    0.851100
    15  O   -0.398645
    16  O   -0.443271
    17  H    0.167412
    18  H    0.152157
    19  H    0.428606
    20  H    0.194609
    21  H    0.167973
    22  H    0.168284
    23  H    0.194021
    24  H    0.174508
    25  H    0.174611
    26  H    0.187098
    27  H    0.182040
    28  H    0.390553
    29  H    0.393127
 Sum of Mulliken charges =   1.00000

 Dipole moment (field-independent basis, Debye):
    X=             -9.7547    Y=             -0.0260    Z=              0.0395  Tot=              9.7548
 Quadrupole moment (field-independent basis, Debye-Ang):
   XX=             -9.4960   YY=            -55.3095   ZZ=            -93.7804
   XY=             11.2677   XZ=              0.1410   YZ=             -1.3692

  Exact polarizability: 337.013   6.893 166.371  -0.221   0.179  80.145
 Approx polarizability: 675.603  28.331 237.651  -0.828   0.908 118.813

                      1                      2                      3
                      A                      A                      A
 Frequencies --     47.6829                58.0314                67.2977
 Red. masses --      6.3798                 5.4048                 3.2441
 Frc consts  --      0.0085                 0.0107                 0.0087
 IR Inten    --      0.6342                 0.9312                 8.6504

                      4                      5                      6
                      A                      A                      A
 Frequencies --     71.5196               110.6056               143.4300
 Red. masses --      5.0891                 3.6517                 5.6425
 Frc consts  --      0.0153                 0.0263                 0.0684
 IR Inten    --      0.7442                 0.1057                 0.9458

                      7                      8                      9
                      A                      A                      A
 Frequencies --    169.3679               178.7180               190.8872
 Red. masses --      3.8117                 2.9272                 1.5378
 Frc consts  --      0.0644                 0.0551                 0.0330
 IR Inten    --      3.0617                15.9617                 6.4529

                     10                     11                     12
                      A                      A                      A
 Frequencies --    195.3130               233.9656               242.8645
 Red. masses --      2.9621                 1.2317                 4.9037
 Frc consts  --      0.0666                 0.0397                 0.1704
 IR Inten    --      9.5645                16.6403                 3.7359

                     13                     14                     15
                      A                      A                      A
 Frequencies --    256.4001               283.4083               306.5836
 Red. masses --      1.6858                 1.6021                 5.7795
 Frc consts  --      0.0653                 0.0758                 0.3201
 IR Inten    --     80.5586               102.1454                19.7849

                     16                     17                     18
                      A                      A                      A
 Frequencies --    338.6382               357.6302               373.7486
 Red. masses --      2.4947                 4.3785                 4.5356
 Frc consts  --      0.1686                 0.3299                 0.3733
 IR Inten    --     55.3715                 2.2953                 0.6083

                     19                     20                     21
                      A                      A                      A
 Frequencies --    409.1923               414.5959               496.8670
 Red. masses --      1.2821                 2.6736                 6.1613
 Frc consts  --      0.1265                 0.2708                 0.8962
 IR Inten    --    217.5636                40.9101                 9.0973

                     22                     23                     24
                      A                      A                      A
 Frequencies --    525.9703               528.8640               558.0623
 Red. masses --      6.5262                 5.0163                 2.6523
 Frc consts  --      1.0637                 0.8266                 0.4867
 IR Inten    --      8.3171                18.5921                18.4381

                     25                     26                     27
                      A                      A                      A
 Frequencies --    581.7004               586.0657               618.3550
 Red. masses --      3.7211                 3.7337                 1.3233
 Frc consts  --      0.7419                 0.7556                 0.2981
 IR Inten    --     13.3017                 7.8562                82.6992

                     28                     29                     30
                      A                      A                      A
 Frequencies --    670.9781               688.6595               713.1877
 Red. masses --      4.2632                 5.0084                 5.0091
 Frc consts  --      1.1308                 1.3995                 1.5011
 IR Inten    --      0.5301                 8.4876                45.3962

                     31                     32                     33
                      A                      A                      A
 Frequencies --    728.9501               829.5601               838.0527
 Red. masses --     10.2605                 1.5446                 5.5804
 Frc consts  --      3.2123                 0.6263                 2.3092
 IR Inten    --      0.1641                 5.8906                 2.4097

                     34                     35                     36
                      A                      A                      A
 Frequencies --    845.7653               863.7787               942.7971
 Red. masses --      1.3503                 1.5320                 5.1258
 Frc consts  --      0.5691                 0.6735                 2.6844
 IR Inten    --     39.7898                23.4295                 3.5849

                     37                     38                     39
                      A                      A                      A
 Frequencies --    988.8960               993.0274              1020.1881
 Red. masses --      1.6072                 2.8790                 3.7408
 Frc consts  --      0.9260                 1.6727                 2.2939
 IR Inten    --     93.4403               124.8081                19.1174

                     40                     41                     42
                      A                      A                      A
 Frequencies --   1074.0360              1143.9773              1157.5735
 Red. masses --      4.8323                 1.1447                 2.6842
 Frc consts  --      3.2843                 0.8826                 2.1192
 IR Inten    --      0.7447               150.5900               496.8193

                     43                     44                     45
                      A                      A                      A
 Frequencies --   1166.2088              1169.0750              1171.8533
 Red. masses --      1.5740                 1.2733                 1.2668
 Frc consts  --      1.2613                 1.0253                 1.0250
 IR Inten    --    892.7897                 1.0512                 0.6199

                     46                     47                     48
                      A                      A                      A
 Frequencies --   1203.1475              1206.5807              1228.3193
 Red. masses --      1.4055                 1.3688                 1.6372
 Frc consts  --      1.1987                 1.1741                 1.4553
 IR Inten    --      4.7123                 4.0532                26.0090

                     49                     50                     51
                      A                      A                      A
 Frequencies --   1266.6137              1283.7861              1304.5852
 Red. masses --      2.0030                 1.6239                 1.7117
 Frc consts  --      1.8933                 1.5768                 1.7164
 IR Inten    --    304.2140                42.2095               286.5159

                     52                     53                     54
                      A                      A                      A
 Frequencies --   1326.8935              1356.2617              1398.8202
 Red. masses --      1.5404                 3.7069                 2.9867
 Frc consts  --      1.5979                 4.0174                 3.4433
 IR Inten    --      5.7742                54.6993               381.8866

                     55                     56                     57
                      A                      A                      A
 Frequencies --   1433.5967              1473.9843              1478.2717
 Red. masses --      4.1089                 1.2669                 1.9906
 Frc consts  --      4.9755                 1.6218                 2.5629
 IR Inten    --    692.8885                 1.7353               160.7717

                     58                     59                     60
                      A                      A                      A
 Frequencies --   1491.8992              1495.0303              1497.3160
 Red. masses --      2.2166                 1.0437                 1.0443
 Frc consts  --      2.9067                 1.3744                 1.3794
 IR Inten    --    285.4113                14.4319                14.7100

                     61                     62                     63
                      A                      A                      A
 Frequencies --   1498.5964              1499.6348              1533.0962
 Red. masses --      1.0736                 1.0814                 5.1084
 Frc consts  --      1.4205                 1.4329                 7.0742
 IR Inten    --     21.7822               139.5539               373.1441

                     64                     65                     66
                      A                      A                      A
 Frequencies --   1547.7566              1613.4937              1632.3991
 Red. masses --      5.1384                 4.7673                 5.8017
 Frc consts  --      7.2525                 7.3124                 9.1088
 IR Inten    --    739.8497                73.9846               471.3648

                     67                     68                     69
                      A                      A                      A
 Frequencies --   1646.2411              1682.3351              3039.9061
 Red. masses --      4.7812                 5.5392                 1.0340
 Frc consts  --      7.6344                 9.2369                 5.6297
 IR Inten    --    526.0404               810.1301                30.4901

                     70                     71                     72
                      A                      A                      A
 Frequencies --   3049.0748              3119.6551              3132.8326
 Red. masses --      1.0330                 1.1075                 1.1082
 Frc consts  --      5.6586                 6.3506                 6.4081
 IR Inten    --     23.3133                22.2563                17.1830

                     73                     74                     75
                      A                      A                      A
 Frequencies --   3193.1365              3193.8670              3197.0273
 Red. masses --      1.0899                 1.1013                 1.1026
 Frc consts  --      6.5476                 6.6188                 6.6398
 IR Inten    --      0.7305                 5.1560                 3.9542

                     76                     77                     78
                      A                      A                      A
 Frequencies --   3237.6864              3248.2426              3255.6372
 Red. masses --      1.0909                 1.0914                 1.0899
 Frc consts  --      6.7376                 6.7850                 6.8061
 IR Inten    --      1.5571                 2.8277                 0.0080

                     79                     80                     81
                      A                      A                      A
 Frequencies --   3733.1490              3806.0239              3815.0886
 Red. masses --      1.0650                 1.0679                 1.0661
 Frc consts  --      8.7451                 9.1142                 9.1420
 IR Inten    --    353.0220                60.3220               657.9119

 - Thermochemistry -
 -------------------
 Temperature   298.150 Kelvin.  Pressure   1.00000 Atm.
 Atom     1 has atomic number  6 and mass  12.00000

 Molecular mass:   225.07630 amu.
 Principal axes and moments of inertia in atomic units:
                           1         2         3
     Eigenvalues --  2533.678886584.030159090.50893
           X            0.99999  -0.00326   0.00002
           Y            0.00326   0.99999  -0.00109
           Z           -0.00001   0.00109   1.00000
 This molecule is an asymmetric top.
 Rotational symmetry number  1.
 Warning -- assumption of classical behavior for rotation
           may cause significant error
 Rotational temperatures (Kelvin)      0.03419     0.01316     0.00953
 Rotational constants (GHZ):           0.71230     0.27411     0.19853
 Zero-point vibrational energy     606939.2 (Joules/Mol)
                                  145.06196 (Kcal/Mol)
 Warning -- explicit consideration of  27 degrees of freedom as
           vibrations may cause significant error
 Vibrational temperatures:     68.60    83.49    96.83   102.90   159.14
          (Kelvin)            206.36   243.68   257.14   274.64   281.01
                              336.62   349.43   368.90   407.76   441.10
                              487.22   514.55   537.74   588.74   596.51
                              714.88   756.75   760.92   802.93   836.94
                              843.22   889.67   965.39   990.83  1026.12
                             1048.80  1193.55  1205.77  1216.87  1242.78
                             1356.47  1422.80  1428.74  1467.82  1545.30
                             1645.93  1665.49  1677.91  1682.04  1686.03
                             1731.06  1736.00  1767.28  1822.37  1847.08
                             1877.00  1909.10  1951.36  2012.59  2062.62
                             2120.73  2126.90  2146.51  2151.01  2154.30
                             2156.14  2157.64  2205.78  2226.87  2321.45
                             2348.66  2368.57  2420.50  4373.74  4386.93
                             4488.48  4507.44  4594.21  4595.26  4599.80
                             4658.30  4673.49  4684.13  5371.16  5476.01
                             5489.05

 Zero-point correction=                           0.231171 (Hartree/Particle)
 Thermal correction to Energy=                    0.247444
 Thermal correction to Enthalpy=                  0.248388
 Thermal correction to Gibbs Free Energy=         0.187209
 Sum of electronic and zero-point Energies=           -802.349607
 Sum of electronic and thermal Energies=              -802.333335
 Sum of electronic and thermal Enthalpies=            -802.332391
 Sum of electronic and thermal Free Energies=         -802.393570

                     E (Thermal)             CV                S
                      KCal/Mol        Cal/Mol-Kelvin    Cal/Mol-Kelvin
 Total                  155.273             60.329            128.762
 Electronic               0.000              0.000              0.000
 Translational            0.889              2.981             42.136
 Rotational               0.889              2.981             33.383
 Vibrational            153.496             54.368             53.243
 Vibration     1          0.595              1.978              4.911
 Vibration     2          0.596              1.974              4.523
 Vibration     3          0.598              1.970              4.231
 Vibration     4          0.598              1.968              4.111
 Vibration     5          0.606              1.941              3.258
 Vibration     6          0.616              1.910              2.758
 Vibration     7          0.625              1.880              2.442
 Vibration     8          0.629              1.868              2.342
 Vibration     9          0.634              1.852              2.219
 Vibration    10          0.636              1.846              2.177
 Vibration    11          0.654              1.789              1.848
 Vibration    12          0.659              1.775              1.782
 Vibration    13          0.666              1.752              1.686
 Vibration    14          0.682              1.704              1.513
 Vibration    15          0.697              1.661              1.381
 Vibration    16          0.719              1.598              1.219
 Vibration    17          0.733              1.560              1.132
 Vibration    18          0.745              1.526              1.064
 Vibration    19          0.774              1.450              0.929
 Vibration    20          0.778              1.439              0.911
 Vibration    21          0.852              1.257              0.666
 Vibration    22          0.881              1.193              0.596
 Vibration    23          0.884              1.186              0.590
 Vibration    24          0.914              1.122              0.528
 Vibration    25          0.938              1.071              0.482
 Vibration    26          0.943              1.062              0.474
 Vibration    27          0.978              0.993              0.419

 Normal termination of Gaussian 09 at Sat Dec 14 18:39:48 2024.
