 Gaussian 09, Revision E.01,
 Gaussian 09:  ES64L-G09RevE.01 30-Nov-2015

 --------------------------------
 # opt freq cam-b3lyp/6-31+g(d,p)
 --------------------------------

 ----------
 [No Title]
 ----------
 Symbolic Z-matrix:
 Charge =  1 Multiplicity = 1

 SCF Done:  E(RCAM-B3LYP) =  -802.520143994     A.U. after   17 cycles
 SCF Done:  E(RCAM-B3LYP) =  -802.520824472     A.U. after   13 cycles
 SCF Done:  E(RCAM-B3LYP) =  -802.520873930     A.U. after   12 cycles
 SCF Done:  E(RCAM-B3LYP) =  -802.520881534     A.U. after   11 cycles
 SCF Done:  E(RCAM-B3LYP) =  -802.520885446     A.U. after   11 cycles
 SCF Done:  E(RCAM-B3LYP) =  -802.520889082     A.U. after   11 cycles
 SCF Done:  E(RCAM-B3LYP) =  -802.520891711     A.U. after   11 cycles
 SCF Done:  E(RCAM-B3LYP) =  -802.520892267     A.U. after    9 cycles
 Optimization completed.
    -- Stationary point found.
 Normal termination of Gaussian 09 at Thu Jun 20 11:40:00 2024.

 ----------------------------------------------------------------------
 #N Geom=AllCheck Guess=TCheck SCRF=Check GenChk RCAM-B3LYP/6-31+G(d,p)
  Freq
 ----------------------------------------------------------------------

 Structure from the checkpoint file:  "camb3lypSAyanggd3.chk"
 ----------
 [No Title]
 ----------
 Charge =  1 Multiplicity = 1

                         Standard orientation:
 ---------------------------------------------------------------------
 Center     Atomic      Atomic             Coordinates (Angstroms)
 Number     Number       Type             X           Y           Z
 ---------------------------------------------------------------------
      1          6           0       -2.391773    0.194842   -0.001156
      2          6           0       -1.916612   -1.134739    0.006106
      3          6           0       -0.552285   -1.346060    0.010701
      4          6           0        0.358089   -0.257436    0.008740
      5          6           0       -0.132978    1.073465   -0.001799
      6          6           0       -1.489142    1.286794   -0.005093
      7          8           0       -3.695752    0.408973   -0.005307
      8          8           0       -2.868898   -2.079021    0.007806
      9          6           0       -2.474686   -3.445171    0.016376
     10          8           0       -2.125905    2.480364   -0.013738
     11          6           0       -1.353343    3.677987   -0.016875
     12          6           0        1.734284   -0.557401    0.012014
     13          6           0        2.797037    0.335752    0.017360
     14          6           0        4.105665   -0.108354   -0.001378
     15          8           0        5.074630    0.778739    0.097547
     16          8           0        4.388950   -1.392421   -0.125538
     17          1           0       -0.159565   -2.355070    0.016369
     18          1           0        0.550073    1.911695   -0.006872
     19          1           0       -3.866252    1.366938   -0.010936
     20          1           0       -3.399881   -4.017743    0.016781
     21          1           0       -1.893789   -3.690579   -0.879011
     22          1           0       -1.899044   -3.680733    0.917783
     23          1           0       -2.071214    4.495452   -0.022395
     24          1           0       -0.734542    3.738259    0.883609
     25          1           0       -0.729697    3.730490   -0.914495
     26          1           0        1.990712   -1.614359    0.008977
     27          1           0        2.666524    1.409174    0.038495
     28          1           0        5.961614    0.453004   -0.118248
     29          1           0        5.295332   -1.637667    0.113808
 ---------------------------------------------------------------------

 SCF Done:  E(RCAM-B3LYP) =  -802.520892267     A.U. after    1 cycles

 The electronic state is 1-A.
 Alpha  occ. eigenvalues --  -19.46564 -19.46381 -19.39721 -19.39511 -19.37422
 Alpha  occ. eigenvalues --  -10.59472 -10.48030 -10.46698 -10.46032 -10.45876
 Alpha  occ. eigenvalues --  -10.43326 -10.42303 -10.42157 -10.41780 -10.41280
 Alpha  occ. eigenvalues --  -10.41083  -1.40022  -1.31983  -1.31087  -1.28142
 Alpha  occ. eigenvalues --   -1.26695  -1.09427  -1.05513  -0.99609  -0.97917
 Alpha  occ. eigenvalues --   -0.93160  -0.92284  -0.88833  -0.87412  -0.85625
 Alpha  occ. eigenvalues --   -0.81086  -0.78745  -0.77350  -0.75145  -0.72807
 Alpha  occ. eigenvalues --   -0.71723  -0.71074  -0.69773  -0.68089  -0.67816
 Alpha  occ. eigenvalues --   -0.66875  -0.65637  -0.64520  -0.62146  -0.62101
 Alpha  occ. eigenvalues --   -0.61702  -0.61487  -0.60126  -0.59674  -0.58585
 Alpha  occ. eigenvalues --   -0.57305  -0.55554  -0.54023  -0.53872  -0.52440
 Alpha  occ. eigenvalues --   -0.51605  -0.47787  -0.41710  -0.38932
 Alpha virt. eigenvalues --   -0.20706  -0.12719  -0.09119  -0.07492  -0.07303
 Alpha virt. eigenvalues --   -0.07044  -0.06326  -0.05686  -0.04259  -0.03935
 Alpha virt. eigenvalues --   -0.03391  -0.02692  -0.02522  -0.02349  -0.01658

 Mulliken charges:
               1
     1  C   -0.078899
     2  C    0.668448
     3  C   -0.176230
     4  C   -0.402839
     5  C   -0.216722
     6  C    0.363203
     7  O   -0.477238
     8  O   -0.371896
     9  C   -0.112230
    10  O   -0.467841
    11  C   -0.118118
    12  C    0.175801
    13  C   -0.702363
    14  C    0.962026
    15  O   -0.423332
    16  O   -0.470340
    17  H    0.148945
    18  H    0.133892
    19  H    0.430545
    20  H    0.182190
    21  H    0.156268
    22  H    0.156043
    23  H    0.181640
    24  H    0.163202
    25  H    0.163190
    26  H    0.175896
    27  H    0.165470
    28  H    0.393641
    29  H    0.397649
 Sum of Mulliken charges =   1.00000

 Dipole moment (field-independent basis, Debye):
    X=             10.6924    Y=             -0.1800    Z=              0.0431  Tot=             10.6940
 Quadrupole moment (field-independent basis, Debye-Ang):
   XX=            -10.5976   YY=            -57.2241   ZZ=            -94.5941
   XY=            -11.9011   XZ=             -0.1253   YZ=             -1.2334

  Exact polarizability: 333.618  -7.077 162.759   0.199   0.177  80.661
 Approx polarizability: 381.225 -11.104 182.657   0.480   0.616 103.561

                      1                      2                      3
                      A                      A                      A
 Frequencies --     48.0395                58.5510                66.0034
 Red. masses --      6.4710                 5.1989                 3.3100
 Frc consts  --      0.0088                 0.0105                 0.0085
 IR Inten    --      1.0324                 0.6968                 9.2988

                      4                      5                      6
                      A                      A                      A
 Frequencies --     73.8412               106.6214               144.0843
 Red. masses --      5.0861                 3.6437                 5.7166
 Frc consts  --      0.0163                 0.0244                 0.0699
 IR Inten    --      0.7208                 0.2265                 1.2054

                      7                      8                      9
                      A                      A                      A
 Frequencies --    172.7472               176.5500               196.3468
 Red. masses --      3.7702                 2.9764                 1.9271
 Frc consts  --      0.0663                 0.0547                 0.0438
 IR Inten    --      7.4235                25.3336                20.7481

                     10                     11                     12
                      A                      A                      A
 Frequencies --    200.8364               233.9710               247.9050
 Red. masses --      2.1744                 1.1732                 3.5680
 Frc consts  --      0.0517                 0.0378                 0.1292
 IR Inten    --      5.5127                81.9189                24.3979

                     13                     14                     15
                      A                      A                      A
 Frequencies --    250.8622               283.6109               312.4564
 Red. masses --      1.6331                 1.7779                 6.2299
 Frc consts  --      0.0606                 0.0843                 0.3583
 IR Inten    --     52.6737                46.4001                11.7136

                     16                     17                     18
                      A                      A                      A
 Frequencies --    339.7440               362.8176               378.7345
 Red. masses --      2.8134                 4.4071                 4.5714
 Frc consts  --      0.1913                 0.3418                 0.3863
 IR Inten    --     34.0258                 2.3206                 1.2178

                     19                     20                     21
                      A                      A                      A
 Frequencies --    418.8668               422.7428               502.8194
 Red. masses --      2.5065                 1.3044                 6.2099
 Frc consts  --      0.2591                 0.1373                 0.9250
 IR Inten    --     39.4453               234.8235                21.8434

                     22                     23                     24
                      A                      A                      A
 Frequencies --    534.7773               535.3836               565.1162
 Red. masses --      6.7560                 4.9296                 2.5277
 Frc consts  --      1.1384                 0.8325                 0.4756
 IR Inten    --      2.7614                32.1373                22.2861

                     25                     26                     27
                      A                      A                      A
 Frequencies --    583.6956               591.1735               614.3559
 Red. masses --      3.6569                 3.7869                 1.3660
 Frc consts  --      0.7341                 0.7798                 0.3038
 IR Inten    --     12.4605                12.0707                83.3444

                     28                     29                     30
                      A                      A                      A
 Frequencies --    679.6018               706.7132               721.4324
 Red. masses --      4.1698                 4.9680                 5.0356
 Frc consts  --      1.1347                 1.4619                 1.5442
 IR Inten    --      0.5792                 9.5668                53.3932

                     31                     32                     33
                      A                      A                      A
 Frequencies --    734.5617               849.6871               859.5848
 Red. masses --      9.7747                 5.5536                 1.5615
 Frc consts  --      3.1075                 2.3623                 0.6798
 IR Inten    --      0.0366                 3.1590                 2.1095

                     34                     35                     36
                      A                      A                      A
 Frequencies --    872.4965               878.2210               954.4763
 Red. masses --      1.3984                 1.4396                 5.0745
 Frc consts  --      0.6272                 0.6542                 2.7238
 IR Inten    --     65.2668                10.3916                 1.4623

                     37                     38                     39
                      A                      A                      A
 Frequencies --   1005.7539              1018.8862              1032.5914
 Red. masses --      4.7641                 1.3491                 3.7163
 Frc consts  --      2.8393                 0.8251                 2.3346
 IR Inten    --    259.1851                18.8796                32.2870

                     40                     41                     42
                      A                      A                      A
 Frequencies --   1089.9287              1136.8114              1160.9325
 Red. masses --      4.8264                 1.1386                 1.5832
 Frc consts  --      3.3781                 0.8670                 1.2572
 IR Inten    --      3.3332               161.3736              1819.6468

                     43                     44                     45
                      A                      A                      A
 Frequencies --   1174.5627              1182.3506              1184.2404
 Red. masses --      2.5846                 1.2722                 1.2665
 Frc consts  --      2.1009                 1.0478                 1.0465
 IR Inten    --    172.3441                 1.4055                 0.8422

                     46                     47                     48
                      A                      A                      A
 Frequencies --   1214.5911              1218.4643              1242.0208
 Red. masses --      1.3911                 1.3760                 1.6849
 Frc consts  --      1.2091                 1.2037                 1.5314
 IR Inten    --     14.9024                 4.7976                18.3047

                     49                     50                     51
                      A                      A                      A
 Frequencies --   1278.6066              1295.2678              1315.7610
 Red. masses --      2.1380                 1.6003                 1.7096
 Frc consts  --      2.0594                 1.5819                 1.7438
 IR Inten    --    354.5652               190.2881               269.0296

                     52                     53                     54
                      A                      A                      A
 Frequencies --   1340.6764              1370.6078              1410.9075
 Red. masses --      1.5611                 3.7986                 3.0777
 Frc consts  --      1.6532                 4.2043                 3.6097
 IR Inten    --     34.1592                50.3637               786.5635

                     55                     56                     57
                      A                      A                      A
 Frequencies --   1437.7691              1487.5953              1493.5270
 Red. masses --      4.4475                 1.2642                 1.8719
 Frc consts  --      5.4168                 1.6483                 2.4602
 IR Inten    --    902.1168                19.6016               177.3853

                     58                     59                     60
                      A                      A                      A
 Frequencies --   1504.1180              1506.9632              1509.4225
 Red. masses --      2.2701                 1.0439                 1.0444
 Frc consts  --      3.0259                 1.3968                 1.4019
 IR Inten    --    628.7915                14.5846                15.0350

                     61                     62                     63
                      A                      A                      A
 Frequencies --   1510.1750              1511.3991              1539.1166
 Red. masses --      1.0550                 1.0714                 4.8879
 Frc consts  --      1.4177                 1.4420                 6.8221
 IR Inten    --     69.4780                38.7826               489.6899

                     64                     65                     66
                      A                      A                      A
 Frequencies --   1565.0544              1635.2646              1644.1289
 Red. masses --      5.0486                 5.1210                 4.5452
 Frc consts  --      7.2858                 8.0683                 7.2389
 IR Inten    --    789.4634               106.9625              1182.8916

                     67                     68                     69
                      A                      A                      A
 Frequencies --   1664.8583              1694.4012              3055.2319
 Red. masses --      5.5526                 5.7481                 1.0346
 Frc consts  --      9.0678                 9.7232                 5.6897
 IR Inten    --    127.9096               538.6058                28.2121

                     70                     71                     72
                      A                      A                      A
 Frequencies --   3064.6819              3129.7196              3143.1986
 Red. masses --      1.0336                 1.1080                 1.1087
 Frc consts  --      5.7194                 6.3945                 6.4534
 IR Inten    --     21.2932                22.2572                16.9315

                     73                     74                     75
                      A                      A                      A
 Frequencies --   3204.6695              3207.4129              3207.9499
 Red. masses --      1.1016                 1.0907                 1.1028
 Frc consts  --      6.6656                 6.6107                 6.6869
 IR Inten    --      4.8641                 0.6247                 3.9729

                     76                     77                     78
                      A                      A                      A
 Frequencies --   3252.7179              3262.1812              3272.6566
 Red. masses --      1.0914                 1.0921                 1.0904
 Frc consts  --      6.8036                 6.8476                 6.8808
 IR Inten    --      1.5331                 2.6316                 0.5193

                     79                     80                     81
                      A                      A                      A
 Frequencies --   3751.7151              3811.1387              3821.3112
 Red. masses --      1.0650                 1.0681                 1.0663
 Frc consts  --      8.8322                 9.1407                 9.1737
 IR Inten    --    389.8480                64.2858               760.9404

 - Thermochemistry -
 -------------------
 Temperature   298.150 Kelvin.  Pressure   1.00000 Atm.
 Atom     1 has atomic number  6 and mass  12.00000

 Molecular mass:   225.07630 amu.
 Principal axes and moments of inertia in atomic units:
                           1         2         3
     Eigenvalues --  2526.785766547.636879047.92197
           X            1.00000   0.00314  -0.00001
           Y           -0.00314   0.99999  -0.00096
           Z            0.00001   0.00096   1.00000
 This molecule is an asymmetric top.
 Rotational symmetry number  1.
 Warning -- assumption of classical behavior for rotation
           may cause significant error
 Rotational temperatures (Kelvin)      0.03428     0.01323     0.00957
 Rotational constants (GHZ):           0.71424     0.27563     0.19946
 Zero-point vibrational energy     611535.6 (Joules/Mol)
                                  146.16051 (Kcal/Mol)
 Warning -- explicit consideration of  27 degrees of freedom as
           vibrations may cause significant error
 Vibrational temperatures:     69.12    84.24    94.96   106.24   153.40
          (Kelvin)            207.30   248.54   254.02   282.50   288.96
                              336.63   356.68   360.93   408.05   449.55
                              488.82   522.01   544.91   602.66   608.23
                              723.44   769.42   770.30   813.08   839.81
                              850.57   883.92   977.79  1016.80  1037.98
                             1056.87  1222.51  1236.75  1255.33  1263.56
                             1373.28  1447.05  1465.95  1485.67  1568.16
                             1635.62  1670.32  1689.93  1701.14  1703.86
                             1747.52  1753.10  1786.99  1839.63  1863.60
                             1893.08  1928.93  1972.00  2029.98  2068.63
                             2140.32  2148.85  2164.09  2168.18  2171.72
                             2172.80  2174.56  2214.44  2251.76  2352.78
                             2365.53  2395.36  2437.86  4395.79  4409.39
                             4502.96  4522.36  4610.80  4614.75  4615.52
                             4679.93  4693.55  4708.62  5397.87  5483.37
                             5498.01

 Zero-point correction=                           0.232922 (Hartree/Particle)
 Thermal correction to Energy=                    0.249063
 Thermal correction to Enthalpy=                  0.250007
 Thermal correction to Gibbs Free Energy=         0.189062
 Sum of electronic and zero-point Energies=           -802.287971
 Sum of electronic and thermal Energies=              -802.271830
 Sum of electronic and thermal Enthalpies=            -802.270885
 Sum of electronic and thermal Free Energies=         -802.331830

                     E (Thermal)             CV                S
                      KCal/Mol        Cal/Mol-Kelvin    Cal/Mol-Kelvin
 Total                  156.289             59.765            128.269
 Electronic               0.000              0.000              0.000
 Translational            0.889              2.981             42.136
 Rotational               0.889              2.981             33.370
 Vibrational            154.512             53.804             52.762
 Vibration     1          0.595              1.978              4.897
 Vibration     2          0.596              1.974              4.505
 Vibration     3          0.597              1.970              4.269
 Vibration     4          0.599              1.966              4.048
 Vibration     5          0.605              1.944              3.330
 Vibration     6          0.616              1.909              2.749
 Vibration     7          0.626              1.876              2.405
 Vibration     8          0.628              1.871              2.365
 Vibration     9          0.636              1.845              2.167
 Vibration    10          0.638              1.839              2.125
 Vibration    11          0.654              1.789              1.848
 Vibration    12          0.662              1.766              1.745
 Vibration    13          0.663              1.761              1.725
 Vibration    14          0.682              1.704              1.512
 Vibration    15          0.701              1.650              1.349
 Vibration    16          0.720              1.596              1.213
 Vibration    17          0.737              1.549              1.110
 Vibration    18          0.749              1.515              1.044
 Vibration    19          0.782              1.429              0.896
 Vibration    20          0.785              1.421              0.883
 Vibration    21          0.858              1.244              0.651
 Vibration    22          0.890              1.173              0.577
 Vibration    23          0.890              1.172              0.575
 Vibration    24          0.921              1.107              0.514
 Vibration    25          0.941              1.067              0.479
 Vibration    26          0.949              1.051              0.465
 Vibration    27          0.974              1.001              0.426

 Optimization completed.
    -- Stationary point found.
 Normal termination of Gaussian 09 at Thu Jun 20 11:44:53 2024.
