 Gaussian 09, Revision E.01,
 Gaussian 09:  ES64L-G09RevE.01 30-Nov-2015

 --------------------------------
 # opt freq cam-b3lyp/6-31+g(d,p)
 --------------------------------

 ----------
 [No Title]
 ----------
 Symbolic Z-matrix:
 Charge =  0 Multiplicity = 1

 SCF Done:  E(RCAM-B3LYP) =  -802.162622620     A.U. after   17 cycles
 SCF Done:  E(RCAM-B3LYP) =  -802.163286133     A.U. after   13 cycles
 SCF Done:  E(RCAM-B3LYP) =  -802.163317785     A.U. after   13 cycles
 SCF Done:  E(RCAM-B3LYP) =  -802.163381041     A.U. after   11 cycles
 SCF Done:  E(RCAM-B3LYP) =  -802.163382006     A.U. after   11 cycles
 SCF Done:  E(RCAM-B3LYP) =  -802.163381736     A.U. after   10 cycles
 SCF Done:  E(RCAM-B3LYP) =  -802.163382576     A.U. after   10 cycles
 Optimization completed.
    -- Stationary point found.
 Normal termination of Gaussian 09 at Wed Jun 19 14:19:02 2024.

 ----------------------------------------------------------------------
 #N Geom=AllCheck Guess=TCheck SCRF=Check GenChk RCAM-B3LYP/6-31+G(d,p)
  Freq
 ----------------------------------------------------------------------

 Structure from the checkpoint file:  "camb3lypSAgd3.chk"
 ----------
 [No Title]
 ----------
 Charge =  0 Multiplicity = 1

                         Standard orientation:
 ---------------------------------------------------------------------
 Center     Atomic      Atomic             Coordinates (Angstroms)
 Number     Number       Type             X           Y           Z
 ---------------------------------------------------------------------
      1          6           0        2.271335   -0.115261    0.000453
      2          6           0        1.690258    1.171214    0.000272
      3          6           0        0.314648    1.330892    0.000102
      4          6           0       -0.527731    0.208483    0.000086
      5          6           0        0.043983   -1.056454    0.000169
      6          6           0        1.427783   -1.232317    0.000243
      7          8           0        3.636313   -0.122868    0.000556
      8          8           0        2.582412    2.191837    0.000345
      9          6           0        2.084792    3.515474    0.000168
     10          8           0        1.796462   -2.555291    0.000072
     11          6           0        3.133500   -3.006542   -0.000750
     12          6           0       -1.973831    0.427719   -0.000046
     13          6           0       -2.942390   -0.498198   -0.000261
     14          6           0       -4.351249   -0.080546   -0.000368
     15          8           0       -5.190571   -1.142106   -0.000651
     16          8           0       -4.766980    1.060039   -0.000323
     17          1           0       -0.122862    2.320710    0.000025
     18          1           0       -0.560452   -1.955274    0.000079
     19          1           0        3.985376   -1.016256    0.003000
     20          1           0        2.961503    4.162157    0.000240
     21          1           0        1.485136    3.716564   -0.895012
     22          1           0        1.484883    3.716710    0.895146
     23          1           0        3.076221   -4.095154   -0.001392
     24          1           0        3.672042   -2.701223   -0.907239
     25          1           0        3.672689   -2.702536    0.905844
     26          1           0       -2.298774    1.466528    0.000028
     27          1           0       -2.749997   -1.564688   -0.000371
     28          1           0       -6.093430   -0.787202   -0.000750
 ---------------------------------------------------------------------

 SCF Done:  E(RCAM-B3LYP) =  -802.163382576     A.U. after    1 cycles

 The electronic state is 1-A.
 Alpha  occ. eigenvalues --  -19.27638 -19.27419 -19.27020 -19.26429 -19.21564
 Alpha  occ. eigenvalues --  -10.40090 -10.34365 -10.34349 -10.34237 -10.33719
 Alpha  occ. eigenvalues --  -10.32075 -10.29349 -10.28606 -10.27593 -10.27325
 Alpha  occ. eigenvalues --  -10.27096  -1.19323  -1.17825  -1.16420  -1.14606
 Alpha  occ. eigenvalues --   -1.09732  -0.95933  -0.89826  -0.86375  -0.84444
 Alpha  occ. eigenvalues --   -0.79699  -0.78885  -0.75636  -0.70961  -0.69334
 Alpha  occ. eigenvalues --   -0.64618  -0.62944  -0.61409  -0.59551  -0.58238
 Alpha  occ. eigenvalues --   -0.57016  -0.56787  -0.55237  -0.55141  -0.53708
 Alpha  occ. eigenvalues --   -0.52522  -0.52325  -0.50251  -0.49731  -0.48765
 Alpha  occ. eigenvalues --   -0.47579  -0.47117  -0.45055  -0.44585  -0.43696
 Alpha  occ. eigenvalues --   -0.42583  -0.40951  -0.40422  -0.40375  -0.38854
 Alpha  occ. eigenvalues --   -0.34869  -0.33842  -0.28584  -0.26720
 Alpha virt. eigenvalues --   -0.02755   0.01911   0.03311   0.03729   0.03933
 Alpha virt. eigenvalues --    0.04543   0.04827   0.05617   0.05915   0.06768
 Alpha virt. eigenvalues --    0.07028   0.07696   0.07920   0.08850   0.09090

 Mulliken charges:
               1
     1  C    0.046724
     2  C    0.355809
     3  C   -0.088935
     4  C   -0.271736
     5  C   -0.352165
     6  C    0.222349
     7  O   -0.544710
     8  O   -0.377773
     9  C   -0.117550
    10  O   -0.390809
    11  C   -0.172603
    12  C    0.310206
    13  C   -0.640051
    14  C    0.813072
    15  O   -0.476796
    16  O   -0.526230
    17  H    0.129054
    18  H    0.129777
    19  H    0.358798
    20  H    0.155287
    21  H    0.148799
    22  H    0.148792
    23  H    0.167964
    24  H    0.146960
    25  H    0.146661
    26  H    0.159309
    27  H    0.140265
    28  H    0.379531
 Sum of Mulliken charges =   0.00000

 Dipole moment (field-independent basis, Debye):
    X=              3.2011    Y=             -1.6864    Z=              0.0019  Tot=              3.6181
 Quadrupole moment (field-independent basis, Debye-Ang):
   XX=            -92.0620   YY=            -81.1297   ZZ=            -96.6084
   XY=             -3.3804   XZ=              0.0120   YZ=             -0.0010

  Exact polarizability: 235.711   2.956 167.300   0.019   0.004  84.757
 Approx polarizability: 241.360   7.903 197.885   0.019  -0.001 107.905

 ******    2 imaginary frequencies (negative Signs) ******

                      1                      2                      3
                      A                      A                      A
 Frequencies --   -133.8535                -6.7884                27.2722
 Red. masses --      1.7145                 1.5889                 5.3061
 Frc consts  --      0.0181                 0.0000                 0.0023
 IR Inten    --      8.9346                63.9640                 2.6920

                      4                      5                      6
                      A                      A                      A
 Frequencies --     65.4946                71.8913                79.2749
 Red. masses --      8.4965                 5.9844                 3.4300
 Frc consts  --      0.0215                 0.0182                 0.0127
 IR Inten    --      2.5679                 0.1324                 9.8971

                      7                      8                      9
                      A                      A                      A
 Frequencies --    130.5876               147.9440               189.6327
 Red. masses --      3.6230                 4.5117                 4.3139
 Frc consts  --      0.0364                 0.0582                 0.0914
 IR Inten    --      0.6640                 1.4775                 4.1132

                     10                     11                     12
                      A                      A                      A
 Frequencies --    206.1712               221.2790               246.4196
 Red. masses --      5.6479                 2.0435                 2.4161
 Frc consts  --      0.1414                 0.0590                 0.0864
 IR Inten    --      0.6601                 0.5557                 0.1257

                     13                     14                     15
                      A                      A                      A
 Frequencies --    260.2214               296.4140               321.5254
 Red. masses --      4.6265                 1.8458                 1.0668
 Frc consts  --      0.1846                 0.0955                 0.0650
 IR Inten    --      0.2542                 0.6626                 8.7838

                     16                     17                     18
                      A                      A                      A
 Frequencies --    328.2527               343.8710               398.1246
 Red. masses --      4.6116                 5.6478                 4.6589
 Frc consts  --      0.2928                 0.3935                 0.4351
 IR Inten    --      4.1014                 1.4317                 0.5217

                     19                     20                     21
                      A                      A                      A
 Frequencies --    410.7976               475.0055               505.7273
 Red. masses --      4.4006                 6.1112                 6.1404
 Frc consts  --      0.4375                 0.8124                 0.9253
 IR Inten    --      1.9981                20.9868                 7.5925

                     22                     23                     24
                      A                      A                      A
 Frequencies --    545.4159               578.1308               588.7544
 Red. masses --      5.3203                 1.8829                 3.6656
 Frc consts  --      0.9325                 0.3708                 0.7486
 IR Inten    --      3.1633                22.7013                 6.0645

                     25                     26                     27
                      A                      A                      A
 Frequencies --    590.8400               628.8989               669.1817
 Red. masses --      5.5424                 1.8234                 4.6331
 Frc consts  --      1.1400                 0.4249                 1.2224
 IR Inten    --     67.1120                82.7138                20.2945

                     28                     29                     30
                      A                      A                      A
 Frequencies --    727.8315               733.9869               762.2275
 Red. masses --      4.4922                 5.8210                 3.8587
 Frc consts  --      1.4021                 1.8477                 1.3209
 IR Inten    --      5.6897                 0.0662                19.3418

                     31                     32                     33
                      A                      A                      A
 Frequencies --    822.7589               861.6312               884.1747
 Red. masses --      5.7371                 1.5349                 1.4772
 Frc consts  --      2.2882                 0.6714                 0.6804
 IR Inten    --      8.3995                47.2586                10.1384

                     34                     35                     36
                      A                      A                      A
 Frequencies --    909.1773               946.3118               986.7325
 Red. masses --      2.0228                 4.8438                 3.5887
 Frc consts  --      0.9852                 2.5557                 2.0587
 IR Inten    --     11.4753                11.1553                27.9939

                     37                     38                     39
                      A                      A                      A
 Frequencies --   1014.7129              1038.8006              1114.0505
 Red. masses --      4.4893                 1.1764                 3.3506
 Frc consts  --      2.7234                 0.7479                 2.4501
 IR Inten    --     18.4549                31.5903                28.9747

                     40                     41                     42
                      A                      A                      A
 Frequencies --   1142.6786              1170.2884              1171.3687
 Red. masses --      2.2819                 2.3915                 1.2560
 Frc consts  --      1.7555                 1.9298                 1.0154
 IR Inten    --    202.4244               593.7015                 1.5430

                     43                     44                     45
                      A                      A                      A
 Frequencies --   1184.0358              1198.0307              1215.9366
 Red. masses --      1.2766                 1.7740                 1.3660
 Frc consts  --      1.0545                 1.5002                 1.1899
 IR Inten    --      1.1895                 1.8013                34.8408

                     46                     47                     48
                      A                      A                      A
 Frequencies --   1222.5037              1268.4936              1271.6564
 Red. masses --      1.5502                 2.3998                 1.6176
 Frc consts  --      1.3650                 2.2751                 1.5412
 IR Inten    --      2.1927               146.1726               148.3351

                     49                     50                     51
                      A                      A                      A
 Frequencies --   1283.5430              1300.4574              1345.0998
 Red. masses --      1.8542                 2.5223                 1.6156
 Frc consts  --      1.7998                 2.5133                 1.7223
 IR Inten    --    158.7625                28.8866                59.8316

                     52                     53                     54
                      A                      A                      A
 Frequencies --   1365.1394              1400.2297              1429.6248
 Red. masses --      2.1259                 3.2728                 4.4808
 Frc consts  --      2.3343                 3.7807                 5.3957
 IR Inten    --      6.2939               381.2553               113.5558

                     55                     56                     57
                      A                      A                      A
 Frequencies --   1472.3542              1497.3787              1507.7525
 Red. masses --      1.5806                 1.3205                 1.0445
 Frc consts  --      2.0188                 1.7444                 1.3990
 IR Inten    --     64.7440                16.0295                 9.9785

                     58                     59                     60
                      A                      A                      A
 Frequencies --   1509.6970              1517.5525              1523.9988
 Red. masses --      2.0756                 1.1092                 1.0482
 Frc consts  --      2.7872                 1.5051                 1.4344
 IR Inten    --    100.5178                49.9739                 8.2173

                     61                     62                     63
                      A                      A                      A
 Frequencies --   1530.9210              1573.7751              1669.9507
 Red. masses --      1.0494                 5.0608                 7.1200
 Frc consts  --      1.4491                 7.3851                11.6987
 IR Inten    --     29.9340               315.4960               192.8548

                     64                     65                     66
                      A                      A                      A
 Frequencies --   1684.8032              1732.8055              1824.7393
 Red. masses --      6.6890                 6.2896                 9.0881
 Frc consts  --     11.1869                11.1269                17.8289
 IR Inten    --     38.2883               388.5381               343.9812

                     67                     68                     69
                      A                      A                      A
 Frequencies --   3022.3399              3045.0335              3092.9363
 Red. masses --      1.0369                 1.0345                 1.1082
 Frc consts  --      5.5805                 5.6516                 6.2462
 IR Inten    --     50.4750                47.5678                27.7667

                     70                     71                     72
                      A                      A                      A
 Frequencies --   3112.6265              3169.2588              3181.7666
 Red. masses --      1.1068                 1.0964                 1.1010
 Frc consts  --      6.3182                 6.4882                 6.5669
 IR Inten    --     31.9190                14.7537                18.6973

                     73                     74                     75
                      A                      A                      A
 Frequencies --   3193.1506              3237.9018              3247.2197
 Red. masses --      1.0900                 1.0923                 1.0906
 Frc consts  --      6.5481                 6.7473                 6.7755
 IR Inten    --      0.8362                 2.3543                 2.2619

                     76                     77                     78
                      A                      A                      A
 Frequencies --   3252.1263              3806.3270              3950.5852
 Red. masses --      1.0907                 1.0644                 1.0653
 Frc consts  --      6.7968                 9.0860                 9.7962
 IR Inten    --      2.2866               129.2040               188.4237

 - Thermochemistry -
 -------------------
 Temperature   298.150 Kelvin.  Pressure   1.00000 Atm.
 Atom     1 has atomic number  6 and mass  12.00000

 Molecular mass:   224.06847 amu.
 Principal axes and moments of inertia in atomic units:
                           1         2         3
     Eigenvalues --  2314.535436988.296189279.46692
           X            0.99999  -0.00497  -0.00008
           Y            0.00497   0.99999  -0.00009
           Z            0.00008   0.00009   1.00000
 This molecule is an asymmetric top.
 Rotational symmetry number  1.
 Warning -- assumption of classical behavior for rotation
           may cause significant error
 Rotational temperatures (Kelvin)      0.03742     0.01239     0.00933
 Rotational constants (GHZ):           0.77974     0.25825     0.19449
    2 imaginary frequencies ignored.
 Zero-point vibrational energy     576932.7 (Joules/Mol)
                                  137.89022 (Kcal/Mol)
 Warning -- explicit consideration of  23 degrees of freedom as
           vibrations may cause significant error
 Vibrational temperatures:     39.24    94.23   103.44   114.06   187.89
          (Kelvin)            212.86   272.84   296.63   318.37   354.54
                              374.40   426.47   462.60   472.28   494.75
                              572.81   591.05   683.43   727.63   784.73
                              831.80   847.09   850.09   904.84   962.80
                             1047.19  1056.04  1096.67  1183.77  1239.69
                             1272.13  1308.10  1361.53  1419.69  1459.94
                             1494.60  1602.87  1644.06  1683.78  1685.34
                             1703.56  1723.70  1749.46  1758.91  1825.08
                             1829.63  1846.73  1871.07  1935.30  1964.13
                             2014.62  2056.91  2118.39  2154.39  2169.32
                             2172.11  2183.42  2192.69  2202.65  2264.31
                             2402.68  2424.05  2493.12  2625.39  4348.47
                             4381.12  4450.04  4478.37  4559.85  4577.85
                             4594.23  4658.61  4672.02  4679.08  5476.45
                             5684.00

 Zero-point correction=                           0.219742 (Hartree/Particle)
 Thermal correction to Energy=                    0.234343
 Thermal correction to Enthalpy=                  0.235287
 Thermal correction to Gibbs Free Energy=         0.176952
 Sum of electronic and zero-point Energies=           -801.943641
 Sum of electronic and thermal Energies=              -801.929040
 Sum of electronic and thermal Enthalpies=            -801.928096
 Sum of electronic and thermal Free Energies=         -801.986431

                     E (Thermal)             CV                S
                      KCal/Mol        Cal/Mol-Kelvin    Cal/Mol-Kelvin
 Total                  147.052             54.380            122.777
 Electronic               0.000              0.000              0.000
 Translational            0.889              2.981             42.123
 Rotational               0.889              2.981             33.373
 Vibrational            145.275             48.419             47.281
 Vibration     1          0.593              1.984              6.019
 Vibration     2          0.597              1.971              4.284
 Vibration     3          0.598              1.967              4.101
 Vibration     4          0.600              1.963              3.909
 Vibration     5          0.612              1.923              2.937
 Vibration     6          0.617              1.905              2.699
 Vibration     7          0.633              1.854              2.231
 Vibration     8          0.641              1.831              2.077
 Vibration     9          0.648              1.809              1.949
 Vibration    10          0.661              1.769              1.756
 Vibration    11          0.668              1.745              1.660
 Vibration    12          0.690              1.680              1.437
 Vibration    13          0.707              1.632              1.302
 Vibration    14          0.711              1.619              1.269
 Vibration    15          0.723              1.588              1.194
 Vibration    16          0.764              1.474              0.970
 Vibration    17          0.775              1.447              0.924
 Vibration    18          0.832              1.306              0.724
 Vibration    19          0.861              1.237              0.644
 Vibration    20          0.901              1.150              0.554
 Vibration    21          0.935              1.079              0.489
 Vibration    22          0.946              1.056              0.469
 Vibration    23          0.948              1.051              0.466

 Normal termination of Gaussian 09 at Wed Jun 19 14:23:11 2024.
