 Gaussian 09, Revision E.01,
 Gaussian 09:  ES64L-G09RevE.01 30-Nov-2015

 ----------------------------
 # opt freq m062x/6-31+g(d,p)
 ----------------------------

 ----------
 [No Title]
 ----------
 Symbolic Z-matrix:
 Charge =  1 Multiplicity = 1

 SCF Done:  E(RM062X) =  -802.547655320     A.U. after   16 cycles
 SCF Done:  E(RM062X) =  -802.547808443     A.U. after   13 cycles
 SCF Done:  E(RM062X) =  -802.547825870     A.U. after   11 cycles
 SCF Done:  E(RM062X) =  -802.547827633     A.U. after   10 cycles
 SCF Done:  E(RM062X) =  -802.547828169     A.U. after    9 cycles
 SCF Done:  E(RM062X) =  -802.547828820     A.U. after   11 cycles
 SCF Done:  E(RM062X) =  -802.547829244     A.U. after   11 cycles
 SCF Done:  E(RM062X) =  -802.547829407     A.U. after    9 cycles
 Optimization completed.
    -- Stationary point found.
 Normal termination of Gaussian 09 at Tue Feb 27 12:38:15 2024.

 ----------------------------------------------------------------------
 #N Geom=AllCheck Guess=TCheck SCRF=Check GenChk RM062X/6-31+G(d,p) Fre
 q
 ----------------------------------------------------------------------

 Structure from the checkpoint file:  "lwm062SAYang.chk"
 ----------
 [No Title]
 ----------
 Charge =  1 Multiplicity = 1

                         Standard orientation:
 ---------------------------------------------------------------------
 Center     Atomic      Atomic             Coordinates (Angstroms)
 Number     Number       Type             X           Y           Z
 ---------------------------------------------------------------------
      1          6           0        2.394712    0.198495   -0.001939
      2          6           0        1.920259   -1.133975    0.006054
      3          6           0        0.554162   -1.348383    0.013409
      4          6           0       -0.354985   -0.257704    0.012482
      5          6           0        0.131171    1.075810    0.000960
      6          6           0        1.489798    1.291897   -0.004165
      7          8           0        3.697965    0.406167   -0.008344
      8          8           0        2.875801   -2.073378    0.005512
      9          6           0        2.467579   -3.433578    0.013408
     10          8           0        2.122974    2.485609   -0.013491
     11          6           0        1.329518    3.667573   -0.014767
     12          6           0       -1.733940   -0.558382    0.015666
     13          6           0       -2.791590    0.340743    0.018029
     14          6           0       -4.102374   -0.111408   -0.001823
     15          8           0       -5.073789    0.770441    0.084059
     16          8           0       -4.374363   -1.396422   -0.116092
     17          1           0        0.160352   -2.358379    0.019985
     18          1           0       -0.554031    1.913977   -0.003157
     19          1           0        3.879232    1.361128   -0.014348
     20          1           0        3.385686   -4.017015    0.011111
     21          1           0        1.889851   -3.660294    0.916299
     22          1           0        1.880498   -3.667976   -0.881432
     23          1           0        2.031324    4.498719   -0.020209
     24          1           0        0.703770    3.704964   -0.912206
     25          1           0        0.710228    3.711119    0.886892
     26          1           0       -1.993310   -1.616223    0.014342
     27          1           0       -2.664370    1.415056    0.035357
     28          1           0       -5.960326    0.435012   -0.115622
     29          1           0       -5.283471   -1.645953    0.105948
 ---------------------------------------------------------------------

 SCF Done:  E(RM062X) =  -802.547829407     A.U. after    1 cycles

 The electronic state is 1-A.
 Alpha  occ. eigenvalues --  -19.88231 -19.88075 -19.81438 -19.81368 -19.79327
 Alpha  occ. eigenvalues --  -10.88413 -10.76826 -10.75450 -10.74766 -10.74565
 Alpha  occ. eigenvalues --  -10.71947 -10.71068 -10.70835 -10.70423 -10.70058
 Alpha  occ. eigenvalues --  -10.69840  -1.44316  -1.36013  -1.35154  -1.32298
 Alpha  occ. eigenvalues --   -1.30785  -1.11256  -1.07185  -1.01081  -0.99398
 Alpha  occ. eigenvalues --   -0.94425  -0.93530  -0.89986  -0.88247  -0.86441
 Alpha  occ. eigenvalues --   -0.81792  -0.79348  -0.77921  -0.75794  -0.73655
 Alpha  occ. eigenvalues --   -0.72806  -0.71527  -0.70060  -0.68570  -0.68167
 Alpha  occ. eigenvalues --   -0.66946  -0.66357  -0.64707  -0.63229  -0.62371
 Alpha  occ. eigenvalues --   -0.62109  -0.61695  -0.61029  -0.59443  -0.58319
 Alpha  occ. eigenvalues --   -0.57352  -0.55402  -0.54174  -0.54136  -0.52633
 Alpha  occ. eigenvalues --   -0.52037  -0.47722  -0.41514  -0.38647
 Alpha virt. eigenvalues --   -0.21719  -0.14007  -0.10250  -0.08935  -0.08780
 Alpha virt. eigenvalues --   -0.08646  -0.07985  -0.07132  -0.06097  -0.05827
 Alpha virt. eigenvalues --   -0.05062  -0.04510  -0.04241  -0.04125  -0.03375

 Mulliken charges:
               1
     1  C    0.058338
     2  C    0.651284
     3  C   -0.340230
     4  C   -0.442678
     5  C   -0.242010
     6  C    0.351820
     7  O   -0.471469
     8  O   -0.364755
     9  C   -0.130237
    10  O   -0.460153
    11  C   -0.141212
    12  C    0.103076
    13  C   -0.602865
    14  C    0.894116
    15  O   -0.421193
    16  O   -0.466507
    17  H    0.168985
    18  H    0.152372
    19  H    0.445258
    20  H    0.195778
    21  H    0.163684
    22  H    0.163838
    23  H    0.195494
    24  H    0.170776
    25  H    0.170731
    26  H    0.194657
    27  H    0.189966
    28  H    0.403846
    29  H    0.409291
 Sum of Mulliken charges =   1.00000

 Dipole moment (field-independent basis, Debye):
    X=            -10.7987    Y=             -0.2028    Z=              0.0409  Tot=             10.8006
 Quadrupole moment (field-independent basis, Debye-Ang):
   XX=             -8.4798   YY=            -56.8571   ZZ=            -94.8056
   XY=             12.1360   XZ=              0.1239   YZ=             -1.1297

  Exact polarizability: 332.206   6.938 162.540  -0.232   0.120  80.077
 Approx polarizability: 404.767  11.964 186.850  -0.572   0.483 104.871

                      1                      2                      3
                      A                      A                      A
 Frequencies --     44.1595                55.1794                61.0247
 Red. masses --      4.5424                 4.6923                 4.5801
 Frc consts  --      0.0052                 0.0084                 0.0100
 IR Inten    --      2.0177                 1.0906                 6.9378

                      4                      5                      6
                      A                      A                      A
 Frequencies --     74.6009               100.1094               142.2330
 Red. masses --      5.1183                 3.6691                 5.8111
 Frc consts  --      0.0168                 0.0217                 0.0693
 IR Inten    --      0.8084                 0.4284                 1.4992

                      7                      8                      9
                      A                      A                      A
 Frequencies --    175.5559               179.0752               202.9837
 Red. masses --      3.6047                 3.8270                 3.9126
 Frc consts  --      0.0655                 0.0723                 0.0950
 IR Inten    --     28.1340                 1.5739                23.6480

                     10                     11                     12
                      A                      A                      A
 Frequencies --    213.2610               252.2924               254.4102
 Red. masses --      1.8530                 1.3291                 4.3460
 Frc consts  --      0.0497                 0.0498                 0.1657
 IR Inten    --      1.7179               118.8404                 0.4844

                     13                     14                     15
                      A                      A                      A
 Frequencies --    273.1210               299.7184               317.2326
 Red. masses --      1.2030                 1.4973                 5.9741
 Frc consts  --      0.0529                 0.0792                 0.3542
 IR Inten    --     27.2152                38.0396                12.2140

                     16                     17                     18
                      A                      A                      A
 Frequencies --    341.7720               366.5612               384.9953
 Red. masses --      2.5924                 4.4159                 4.5746
 Frc consts  --      0.1784                 0.3496                 0.3995
 IR Inten    --     41.8395                 3.2833                 1.5204

                     19                     20                     21
                      A                      A                      A
 Frequencies --    417.6629               452.6019               500.3453
 Red. masses --      2.9883                 1.1809                 5.9913
 Frc consts  --      0.3071                 0.1425                 0.8837
 IR Inten    --     12.3105               268.9041                19.7036

                     22                     23                     24
                      A                      A                      A
 Frequencies --    529.1038               533.8008               554.9789
 Red. masses --      6.6767                 4.9876                 1.9661
 Frc consts  --      1.1013                 0.8373                 0.3568
 IR Inten    --      4.9282                27.6819                41.5273

                     25                     26                     27
                      A                      A                      A
 Frequencies --    572.5446               595.9806               596.9572
 Red. masses --      3.6113                 3.6428                 1.6787
 Frc consts  --      0.6975                 0.7623                 0.3525
 IR Inten    --     14.6690                12.7842                65.1181

                     28                     29                     30
                      A                      A                      A
 Frequencies --    677.9686               706.8289               720.4742
 Red. masses --      4.1718                 5.0086                 5.1193
 Frc consts  --      1.1298                 1.4743                 1.5657
 IR Inten    --      0.4244                 9.5730                44.0799

                     31                     32                     33
                      A                      A                      A
 Frequencies --    722.5977               844.4417               846.4382
 Red. masses --      9.7869                 1.6304                 4.7339
 Frc consts  --      3.0109                 0.6850                 1.9983
 IR Inten    --      1.6002                 2.4151                 3.0371

                     34                     35                     36
                      A                      A                      A
 Frequencies --    859.7799               868.2779               966.8814
 Red. masses --      1.3540                 1.4790                 4.8418
 Frc consts  --      0.5897                 0.6570                 2.6669
 IR Inten    --     47.8331                27.0123                 0.4445

                     37                     38                     39
                      A                      A                      A
 Frequencies --   1011.6787              1015.4291              1037.3640
 Red. masses --      3.2216                 1.4881                 3.5272
 Frc consts  --      1.9427                 0.9040                 2.2364
 IR Inten    --    236.3168                35.2957                15.3437

                     40                     41                     42
                      A                      A                      A
 Frequencies --   1103.5993              1133.6424              1162.6707
 Red. masses --      5.1331                 1.1343                 1.5668
 Frc consts  --      3.6834                 0.8589                 1.2479
 IR Inten    --      0.6470               148.5924              1990.7735

                     43                     44                     45
                      A                      A                      A
 Frequencies --   1178.5292              1181.9518              1184.6207
 Red. masses --      1.2768                 2.5819                 1.2701
 Frc consts  --      1.0448                 2.1251                 1.0501
 IR Inten    --      1.8062               157.0175                 1.3907

                     46                     47                     48
                      A                      A                      A
 Frequencies --   1212.3413              1215.9301              1238.1848
 Red. masses --      1.3899                 1.3764                 1.5847
 Frc consts  --      1.2036                 1.1990                 1.4314
 IR Inten    --     15.9577                 5.1559                18.7099

                     49                     50                     51
                      A                      A                      A
 Frequencies --   1278.4551              1294.2527              1315.3095
 Red. masses --      2.0373                 1.5756                 1.8785
 Frc consts  --      1.9619                 1.5550                 1.9148
 IR Inten    --    255.7234               276.5575               240.3071

                     52                     53                     54
                      A                      A                      A
 Frequencies --   1336.4770              1373.2763              1413.7659
 Red. masses --      1.4532                 4.0336                 3.0308
 Frc consts  --      1.5293                 4.4818                 3.5692
 IR Inten    --     24.1690               102.5216               726.4094

                     55                     56                     57
                      A                      A                      A
 Frequencies --   1435.3661              1484.0454              1492.9074
 Red. masses --      4.3099                 1.2449                 1.3518
 Frc consts  --      5.2317                 1.6154                 1.7752
 IR Inten    --    908.2585                12.0975                21.1424

                     58                     59                     60
                      A                      A                      A
 Frequencies --   1509.0489              1509.9594              1511.7334
 Red. masses --      1.0425                 1.0566                 1.0441
 Frc consts  --      1.3987                 1.4193                 1.4058
 IR Inten    --     15.5069                74.2336                14.4436

                     61                     62                     63
                      A                      A                      A
 Frequencies --   1513.1092              1516.1033              1544.5643
 Red. masses --      1.3328                 2.5815                 5.4618
 Frc consts  --      1.7979                 3.4961                 7.6771
 IR Inten    --    567.5619               593.8055               325.8181

                     64                     65                     66
                      A                      A                      A
 Frequencies --   1567.1978              1639.7107              1645.5171
 Red. masses --      5.6981                 5.1760                 4.8788
 Frc consts  --      8.2457                 8.1994                 7.7833
 IR Inten    --    834.7605               100.5292              1181.8156

                     67                     68                     69
                      A                      A                      A
 Frequencies --   1662.7095              1695.3283              3057.8194
 Red. masses --      5.5804                 6.0150                 1.0348
 Frc consts  --      9.0896                10.1858                 5.7010
 IR Inten    --    135.5375               467.9116                27.1780

                     70                     71                     72
                      A                      A                      A
 Frequencies --   3069.8274              3132.4201              3151.0417
 Red. masses --      1.0324                 1.1072                 1.1078
 Frc consts  --      5.7320                 6.4006                 6.4804
 IR Inten    --     20.2433                23.4810                18.3759

                     73                     74                     75
                      A                      A                      A
 Frequencies --   3205.4556              3208.1753              3215.1430
 Red. masses --      1.1040                 1.1011                 1.0907
 Frc consts  --      6.6835                 6.6774                 6.6428
 IR Inten    --      3.7404                 4.8720                 0.6761

                     76                     77                     78
                      A                      A                      A
 Frequencies --   3232.2537              3245.9362              3262.3292
 Red. masses --      1.0916                 1.0918                 1.0908
 Frc consts  --      6.7191                 6.7777                 6.8399
 IR Inten    --      1.4716                 2.3596                 1.6748

                     79                     80                     81
                      A                      A                      A
 Frequencies --   3776.8678              3828.1175              3846.4637
 Red. masses --      1.0652                 1.0678                 1.0668
 Frc consts  --      8.9525                 9.2196                 9.2993
 IR Inten    --    422.3450               250.7652               644.8409

 - Thermochemistry -
 -------------------
 Temperature   298.150 Kelvin.  Pressure   1.00000 Atm.
 Atom     1 has atomic number  6 and mass  12.00000

 Molecular mass:   225.07630 amu.
 Principal axes and moments of inertia in atomic units:
                           1         2         3
     Eigenvalues --  2518.696906534.936749027.65846
           X            0.99999  -0.00320   0.00001
           Y            0.00320   0.99999  -0.00087
           Z           -0.00001   0.00087   1.00000
 This molecule is an asymmetric top.
 Rotational symmetry number  1.
 Warning -- assumption of classical behavior for rotation
           may cause significant error
 Rotational temperatures (Kelvin)      0.03439     0.01325     0.00959
 Rotational constants (GHZ):           0.71654     0.27617     0.19991
 Zero-point vibrational energy     612204.4 (Joules/Mol)
                                  146.32036 (Kcal/Mol)
 Warning -- explicit consideration of  27 degrees of freedom as
           vibrations may cause significant error
 Vibrational temperatures:     63.54    79.39    87.80   107.33   144.03
          (Kelvin)            204.64   252.59   257.65   292.05   306.83
                              362.99   366.04   392.96   431.23   456.43
                              491.73   527.40   553.92   600.92   651.19
                              719.88   761.26   768.02   798.49   823.76
                              857.48   858.89   975.44  1016.97  1036.60
                             1039.66  1214.96  1217.83  1237.03  1249.26
                             1391.12  1455.58  1460.97  1492.53  1587.83
                             1631.06  1672.82  1695.64  1700.56  1704.40
                             1744.29  1749.45  1781.47  1839.41  1862.14
                             1892.43  1922.89  1975.84  2034.09  2065.17
                             2135.21  2147.96  2171.18  2172.49  2175.04
                             2177.02  2181.33  2222.28  2254.85  2359.18
                             2367.53  2392.27  2439.20  4399.51  4416.79
                             4506.85  4533.64  4611.93  4615.84  4625.87
                             4650.49  4670.17  4693.76  5434.06  5507.80
                             5534.20

 Zero-point correction=                           0.233176 (Hartree/Particle)
 Thermal correction to Energy=                    0.249226
 Thermal correction to Enthalpy=                  0.250170
 Thermal correction to Gibbs Free Energy=         0.189292
 Sum of electronic and zero-point Energies=           -802.314653
 Sum of electronic and thermal Energies=              -802.298604
 Sum of electronic and thermal Enthalpies=            -802.297660
 Sum of electronic and thermal Free Energies=         -802.358537

                     E (Thermal)             CV                S
                      KCal/Mol        Cal/Mol-Kelvin    Cal/Mol-Kelvin
 Total                  156.391             59.683            128.128
 Electronic               0.000              0.000              0.000
 Translational            0.889              2.981             42.136
 Rotational               0.889              2.981             33.363
 Vibrational            154.614             53.722             52.629
 Vibration     1          0.595              1.980              5.063
 Vibration     2          0.596              1.976              4.623
 Vibration     3          0.597              1.973              4.424
 Vibration     4          0.599              1.966              4.028
 Vibration     5          0.604              1.949              3.452
 Vibration     6          0.616              1.911              2.774
 Vibration     7          0.628              1.873              2.375
 Vibration     8          0.629              1.868              2.338
 Vibration     9          0.639              1.836              2.106
 Vibration    10          0.644              1.821              2.016
 Vibration    11          0.664              1.759              1.715
 Vibration    12          0.665              1.755              1.700
 Vibration    13          0.676              1.723              1.576
 Vibration    14          0.692              1.674              1.418
 Vibration    15          0.704              1.641              1.324
 Vibration    16          0.721              1.592              1.204
 Vibration    17          0.739              1.541              1.094
 Vibration    18          0.754              1.502              1.019
 Vibration    19          0.781              1.432              0.900
 Vibration    20          0.811              1.355              0.788
 Vibration    21          0.856              1.249              0.657
 Vibration    22          0.884              1.186              0.589
 Vibration    23          0.889              1.175              0.579
 Vibration    24          0.910              1.129              0.534
 Vibration    25          0.929              1.091              0.499
 Vibration    26          0.954              1.040              0.457
 Vibration    27          0.955              1.038              0.455

 Optimization completed.
    -- Stationary point found.
 Normal termination of Gaussian 09 at Tue Feb 27 12:43:03 2024.
