 Gaussian 09, Revision E.01,
 Gaussian 09:  ES64L-G09RevE.01 30-Nov-2015

 ----------------------------
 # opt freq m062x/6-31+g(d,p)
 ----------------------------

 ----------
 [No Title]
 ----------
 Symbolic Z-matrix:
 Charge =  0 Multiplicity = 1

 SCF Done:  E(RM062X) =  -802.190579100     A.U. after   16 cycles
 SCF Done:  E(RM062X) =  -802.190715673     A.U. after   12 cycles
 SCF Done:  E(RM062X) =  -802.190721448     A.U. after   12 cycles
 SCF Done:  E(RM062X) =  -802.190735378     A.U. after   11 cycles
 SCF Done:  E(RM062X) =  -802.190736639     A.U. after   11 cycles
 SCF Done:  E(RM062X) =  -802.190736750     A.U. after    9 cycles
 SCF Done:  E(RM062X) =  -802.190736877     A.U. after    9 cycles
 Optimization completed.
    -- Stationary point found.
 Normal termination of Gaussian 09 at Mon Feb 26 14:59:58 2024.

 ----------------------------------------------------------------------
 #N Geom=AllCheck Guess=TCheck SCRF=Check GenChk RM062X/6-31+G(d,p) Fre
 q
 ----------------------------------------------------------------------

 Structure from the checkpoint file:  "lwm062xSA.chk"
 ----------
 [No Title]
 ----------
 Charge =  0 Multiplicity = 1

                         Standard orientation:
 ---------------------------------------------------------------------
 Center     Atomic      Atomic             Coordinates (Angstroms)
 Number     Number       Type             X           Y           Z
 ---------------------------------------------------------------------
      1          6           0        2.274280   -0.119970    0.000835
      2          6           0        1.692666    1.169463    0.000320
      3          6           0        0.315971    1.334750    0.000041
      4          6           0       -0.527773    0.211334    0.000238
      5          6           0        0.040745   -1.055890    0.000579
      6          6           0        1.426482   -1.236543    0.000698
      7          8           0        3.637702   -0.116658    0.001087
      8          8           0        2.589752    2.184607    0.000244
      9          6           0        2.082505    3.502948   -0.000235
     10          8           0        1.788003   -2.559621    0.000588
     11          6           0        3.127275   -2.998669   -0.001478
     12          6           0       -1.975731    0.430414   -0.000037
     13          6           0       -2.939362   -0.502620   -0.000176
     14          6           0       -4.351738   -0.078247   -0.000481
     15          8           0       -5.192446   -1.136213   -0.000862
     16          8           0       -4.757010    1.063410   -0.000840
     17          1           0       -0.120939    2.326025   -0.000276
     18          1           0       -0.565275   -1.954890    0.000575
     19          1           0        3.998131   -1.004659    0.004678
     20          1           0        2.953667    4.156721   -0.000236
     21          1           0        1.479943    3.695277   -0.895994
     22          1           0        1.479561    3.695785    0.895158
     23          1           0        3.079374   -4.087549   -0.002891
     24          1           0        3.659976   -2.684332   -0.908723
     25          1           0        3.661870   -2.687078    0.905657
     26          1           0       -2.306123    1.469052   -0.000173
     27          1           0       -2.746256   -1.569726   -0.000090
     28          1           0       -6.093859   -0.780645   -0.001242
 ---------------------------------------------------------------------

 SCF Done:  E(RM062X) =  -802.190736877     A.U. after    1 cycles

 The electronic state is 1-A.
 Alpha  occ. eigenvalues --  -19.69278 -19.69091 -19.68668 -19.68293 -19.63396
 Alpha  occ. eigenvalues --  -10.68726 -10.63117 -10.63024 -10.62948 -10.62457
 Alpha  occ. eigenvalues --  -10.60696 -10.57975 -10.57269 -10.56305 -10.56101
 Alpha  occ. eigenvalues --  -10.55868  -1.23449  -1.21872  -1.20547  -1.18596
 Alpha  occ. eigenvalues --   -1.13608  -0.97756  -0.91386  -0.87867  -0.85786
 Alpha  occ. eigenvalues --   -0.80902  -0.80050  -0.76542  -0.71701  -0.70040
 Alpha  occ. eigenvalues --   -0.65006  -0.63425  -0.61854  -0.59767  -0.58485
 Alpha  occ. eigenvalues --   -0.57623  -0.57604  -0.56093  -0.55777  -0.53883
 Alpha  occ. eigenvalues --   -0.53117  -0.52699  -0.50256  -0.50039  -0.49437
 Alpha  occ. eigenvalues --   -0.47531  -0.47341  -0.45091  -0.44867  -0.43415
 Alpha  occ. eigenvalues --   -0.42751  -0.41160  -0.40688  -0.40621  -0.39240
 Alpha  occ. eigenvalues --   -0.35597  -0.33719  -0.28352  -0.26414
 Alpha virt. eigenvalues --   -0.03731   0.00389   0.01744   0.02127   0.02765
 Alpha virt. eigenvalues --    0.02799   0.03024   0.03950   0.04157   0.04910
 Alpha virt. eigenvalues --    0.05362   0.05918   0.06179   0.06914   0.07070

 Mulliken charges:
               1
     1  C    0.090862
     2  C    0.367729
     3  C   -0.282575
     4  C   -0.328201
     5  C   -0.272282
     6  C    0.230002
     7  O   -0.529283
     8  O   -0.377242
     9  C   -0.133847
    10  O   -0.382821
    11  C   -0.192097
    12  C    0.183793
    13  C   -0.499098
    14  C    0.741333
    15  O   -0.481040
    16  O   -0.498717
    17  H    0.147704
    18  H    0.149200
    19  H    0.374926
    20  H    0.167497
    21  H    0.155813
    22  H    0.155798
    23  H    0.181048
    24  H    0.152579
    25  H    0.152086
    26  H    0.176884
    27  H    0.160852
    28  H    0.389096
 Sum of Mulliken charges =  -0.00000

 Dipole moment (field-independent basis, Debye):
    X=              3.0701    Y=             -1.6658    Z=              0.0018  Tot=              3.4929
 Quadrupole moment (field-independent basis, Debye-Ang):
   XX=            -89.7368   YY=            -80.5818   ZZ=            -96.7444
   XY=             -3.4971   XZ=              0.0139   YZ=              0.0010

  Exact polarizability: 231.673   2.602 166.321   0.026  -0.005  83.927
 Approx polarizability: 248.811   8.419 202.021   0.030  -0.018 109.229

 ******    1 imaginary frequencies (negative Signs) ******

                      1                      2                      3
                      A                      A                      A
 Frequencies --   -131.5318                30.3737                46.6193
 Red. masses --      1.8529                 6.2408                 1.6151
 Frc consts  --      0.0189                 0.0034                 0.0021
 IR Inten    --      4.7029                 3.8218                58.6060

                      4                      5                      6
                      A                      A                      A
 Frequencies --     63.3856                75.2396                86.9983
 Red. masses --      5.9400                 5.9901                 3.3038
 Frc consts  --      0.0141                 0.0200                 0.0147
 IR Inten    --      0.1374                 0.0960                16.5365

                      7                      8                      9
                      A                      A                      A
 Frequencies --    131.2923               150.0345               192.4726
 Red. masses --      3.5994                 4.6701                 4.4514
 Frc consts  --      0.0366                 0.0619                 0.0972
 IR Inten    --      0.2939                 1.5731                 3.9554

                     10                     11                     12
                      A                      A                      A
 Frequencies --    208.0395               223.9769               251.3103
 Red. masses --      5.4879                 2.4581                 2.6222
 Frc consts  --      0.1399                 0.0727                 0.0976
 IR Inten    --      0.7150                 0.9079                 0.0526

                     13                     14                     15
                      A                      A                      A
 Frequencies --    261.5911               308.0889               328.0004
 Red. masses --      4.6326                 1.5280                 4.4434
 Frc consts  --      0.1868                 0.0855                 0.2817
 IR Inten    --      0.4610                 0.3190                 2.9115

                     16                     17                     18
                      A                      A                      A
 Frequencies --    354.2561               358.7935               397.9453
 Red. masses --      5.9271                 1.0980                 3.9494
 Frc consts  --      0.4383                 0.0833                 0.3685
 IR Inten    --      2.2283                11.3095                 2.0291

                     19                     20                     21
                      A                      A                      A
 Frequencies --    411.4018               475.6050               502.4493
 Red. masses --      4.3695                 6.3929                 5.9238
 Frc consts  --      0.4357                 0.8520                 0.8811
 IR Inten    --      2.3451                19.6688                 6.8134

                     22                     23                     24
                      A                      A                      A
 Frequencies --    541.3667               574.8443               586.8995
 Red. masses --      5.4079                 2.4850                 3.2514
 Frc consts  --      0.9338                 0.4838                 0.6599
 IR Inten    --      1.6271                 7.4938                 8.8645

                     25                     26                     27
                      A                      A                      A
 Frequencies --    594.8162               628.2942               671.7658
 Red. masses --      5.5824                 1.5947                 4.6008
 Frc consts  --      1.1637                 0.3709                 1.2232
 IR Inten    --     65.0418                93.5905                26.1770

                     28                     29                     30
                      A                      A                      A
 Frequencies --    723.7807               728.2315               759.5970
 Red. masses --      6.0857                 4.4589                 3.6379
 Frc consts  --      1.8783                 1.3932                 1.2367
 IR Inten    --      0.0042                 3.3269                21.9732

                     31                     32                     33
                      A                      A                      A
 Frequencies --    819.5869               842.9262               884.3105
 Red. masses --      5.7501                 1.5253                 1.4347
 Frc consts  --      2.2757                 0.6386                 0.6610
 IR Inten    --      8.1338                41.5970                12.3987

                     34                     35                     36
                      A                      A                      A
 Frequencies --    902.3857               956.6340               989.9163
 Red. masses --      2.0561                 4.5908                 3.5003
 Frc consts  --      0.9865                 2.4753                 2.0209
 IR Inten    --     16.0709                13.6417                28.9813

                     37                     38                     39
                      A                      A                      A
 Frequencies --   1018.8345              1034.9888              1123.1018
 Red. masses --      4.2631                 1.1627                 2.9784
 Frc consts  --      2.6073                 0.7338                 2.2135
 IR Inten    --     12.0919                33.8715                30.8286

                     40                     41                     42
                      A                      A                      A
 Frequencies --   1151.8026              1165.7085              1178.7759
 Red. masses --      2.1978                 1.2615                 1.2829
 Frc consts  --      1.7179                 1.0100                 1.0503
 IR Inten    --    175.5518                 2.2413                 1.7661

                     43                     44                     45
                      A                      A                      A
 Frequencies --   1182.6156              1199.6113              1211.9604
 Red. masses --      2.3446                 1.7169                 1.3956
 Frc consts  --      1.9320                 1.4557                 1.2078
 IR Inten    --    556.9863                25.4425                18.8030

                     46                     47                     48
                      A                      A                      A
 Frequencies --   1219.2046              1272.4907              1276.3000
 Red. masses --      1.4848                 1.8305                 1.5932
 Frc consts  --      1.3004                 1.7463                 1.5291
 IR Inten    --      0.1881                24.4541                42.6984

                     49                     50                     51
                      A                      A                      A
 Frequencies --   1280.3204              1302.5307              1335.3207
 Red. masses --      2.6177                 2.5274                 1.4289
 Frc consts  --      2.5281                 2.5264                 1.5011
 IR Inten    --    378.9704                51.2060                42.2444

                     52                     53                     54
                      A                      A                      A
 Frequencies --   1363.8803              1407.5568              1436.6596
 Red. masses --      2.8147                 3.2656                 3.6958
 Frc consts  --      3.0848                 3.8119                 4.4943
 IR Inten    --     16.9201               388.8061               105.6373

                     55                     56                     57
                      A                      A                      A
 Frequencies --   1467.3695              1492.6092              1508.4081
 Red. masses --      1.4841                 1.3926                 1.0448
 Frc consts  --      1.8827                 1.8280                 1.4006
 IR Inten    --     50.9419                15.1439                 9.5571

                     58                     59                     60
                      A                      A                      A
 Frequencies --   1509.2740              1516.3285              1522.9237
 Red. masses --      1.9212                 1.2820                 1.0477
 Frc consts  --      2.5785                 1.7367                 1.4317
 IR Inten    --    102.4349                63.7323                 7.4446

                     61                     62                     63
                      A                      A                      A
 Frequencies --   1536.3898              1574.7524              1673.6347
 Red. masses --      1.0471                 5.3448                 7.6532
 Frc consts  --      1.4563                 7.8091                12.6303
 IR Inten    --     33.8956               347.0305               195.7663

                     64                     65                     66
                      A                      A                      A
 Frequencies --   1691.0013              1734.1182              1848.3468
 Red. masses --      6.9168                 6.4026                 9.5180
 Frc consts  --     11.6531                11.3439                19.1586
 IR Inten    --     27.6667               341.1780               368.0044

                     67                     68                     69
                      A                      A                      A
 Frequencies --   3026.8278              3049.2211              3100.6048
 Red. masses --      1.0364                 1.0349                 1.1075
 Frc consts  --      5.5943                 5.6695                 6.2730
 IR Inten    --     51.6890                46.1698                29.4638

                     70                     71                     72
                      A                      A                      A
 Frequencies --   3117.8884              3170.5656              3191.6070
 Red. masses --      1.1062                 1.0967                 1.1002
 Frc consts  --      6.3359                 6.4956                 6.6028
 IR Inten    --     32.9705                14.2833                19.7410

                     73                     74                     75
                      A                      A                      A
 Frequencies --   3195.8504              3227.9021              3228.2941
 Red. masses --      1.0901                 1.0920                 1.0913
 Frc consts  --      6.5600                 6.7038                 6.7009
 IR Inten    --      0.8436                 2.8982                 3.0236

                     76                     77                     78
                      A                      A                      A
 Frequencies --   3248.2065              3828.2773              3994.7514
 Red. masses --      1.0907                 1.0645                 1.0651
 Frc consts  --      6.7802                 9.1921                10.0141
 IR Inten    --      0.8170               140.6747               187.7768

 - Thermochemistry -
 -------------------
 Temperature   298.150 Kelvin.  Pressure   1.00000 Atm.
 Atom     1 has atomic number  6 and mass  12.00000

 Molecular mass:   224.06847 amu.
 Principal axes and moments of inertia in atomic units:
                           1         2         3
     Eigenvalues --  2306.711756983.110129266.42682
           X            0.99999  -0.00494  -0.00012
           Y            0.00494   0.99999  -0.00004
           Z            0.00012   0.00004   1.00000
 This molecule is an asymmetric top.
 Rotational symmetry number  1.
 Warning -- assumption of classical behavior for rotation
           may cause significant error
 Rotational temperatures (Kelvin)      0.03755     0.01240     0.00935
 Rotational constants (GHZ):           0.78239     0.25844     0.19476
    1 imaginary frequencies ignored.
 Zero-point vibrational energy     578275.1 (Joules/Mol)
                                  138.21106 (Kcal/Mol)
 Warning -- explicit consideration of  24 degrees of freedom as
           vibrations may cause significant error
 Vibrational temperatures:     43.70    67.07    91.20   108.25   125.17
          (Kelvin)            188.90   215.87   276.92   299.32   322.25
                              361.58   376.37   443.27   471.92   509.69
                              516.22   572.55   591.91   684.29   722.91
                              778.90   827.07   844.42   855.81   903.97
                              966.52  1041.36  1047.76  1092.89  1179.20
                             1212.78  1272.32  1298.33  1376.38  1424.27
                             1465.87  1489.12  1615.89  1657.18  1677.19
                             1695.99  1701.52  1725.97  1743.74  1754.16
                             1830.83  1836.31  1842.09  1874.05  1921.23
                             1962.32  2025.16  2067.03  2111.21  2147.53
                             2170.26  2171.51  2181.66  2191.14  2210.52
                             2265.71  2407.98  2432.97  2495.01  2659.36
                             4354.92  4387.14  4461.07  4485.94  4561.73
                             4592.00  4598.11  4644.23  4644.79  4673.44
                             5508.03  5747.55

 Zero-point correction=                           0.220253 (Hartree/Particle)
 Thermal correction to Energy=                    0.235590
 Thermal correction to Enthalpy=                  0.236534
 Thermal correction to Gibbs Free Energy=         0.176236
 Sum of electronic and zero-point Energies=           -801.970484
 Sum of electronic and thermal Energies=              -801.955147
 Sum of electronic and thermal Enthalpies=            -801.954203
 Sum of electronic and thermal Free Energies=         -802.014501

                     E (Thermal)             CV                S
                      KCal/Mol        Cal/Mol-Kelvin    Cal/Mol-Kelvin
 Total                  147.835             56.254            126.909
 Electronic               0.000              0.000              0.000
 Translational            0.889              2.981             42.123
 Rotational               0.889              2.981             33.367
 Vibrational            146.057             50.292             51.418
 Vibration     1          0.594              1.984              5.805
 Vibration     2          0.595              1.979              4.956
 Vibration     3          0.597              1.972              4.349
 Vibration     4          0.599              1.966              4.011
 Vibration     5          0.601              1.958              3.726
 Vibration     6          0.612              1.922              2.927
 Vibration     7          0.618              1.903              2.672
 Vibration     8          0.634              1.850              2.204
 Vibration     9          0.641              1.828              2.061
 Vibration    10          0.649              1.805              1.927
 Vibration    11          0.663              1.761              1.721
 Vibration    12          0.669              1.743              1.651
 Vibration    13          0.698              1.658              1.373
 Vibration    14          0.711              1.620              1.270
 Vibration    15          0.730              1.567              1.147
 Vibration    16          0.734              1.557              1.127
 Vibration    17          0.764              1.475              0.970
 Vibration    18          0.775              1.445              0.922
 Vibration    19          0.832              1.304              0.722
 Vibration    20          0.858              1.245              0.652
 Vibration    21          0.896              1.159              0.562
 Vibration    22          0.931              1.086              0.495
 Vibration    23          0.944              1.060              0.473
 Vibration    24          0.953              1.043              0.459

 Normal termination of Gaussian 09 at Mon Feb 26 15:03:41 2024.
