 Gaussian 09, Revision E.01,
 Gaussian 09:  ES64L-G09RevE.01 30-Nov-2015

 -----------------------------
 # opt freq pbepbe/6-31+g(d,p)
 -----------------------------

 ----------
 [No Title]
 ----------
 Symbolic Z-matrix:
 Charge =  1 Multiplicity = 1

 SCF Done:  E(RPBE-PBE) =  -801.968183096     A.U. after   19 cycles
 SCF Done:  E(RPBE-PBE) =  -801.971759689     A.U. after   14 cycles
 SCF Done:  E(RPBE-PBE) =  -801.971881362     A.U. after   12 cycles
 SCF Done:  E(RPBE-PBE) =  -801.971901665     A.U. after   12 cycles
 SCF Done:  E(RPBE-PBE) =  -801.971909570     A.U. after   12 cycles
 SCF Done:  E(RPBE-PBE) =  -801.971918825     A.U. after   12 cycles
 SCF Done:  E(RPBE-PBE) =  -801.971924932     A.U. after   11 cycles
 SCF Done:  E(RPBE-PBE) =  -801.971925865     A.U. after   10 cycles
 Optimization completed.
    -- Stationary point found.
 Normal termination of Gaussian 09 at Sun May 19 23:20:52 2024.

 ----------------------------------------------------------------------
 #N Geom=AllCheck Guess=TCheck SCRF=Check GenChk RPBEPBE/6-31+G(d,p) Fr
 eq
 ----------------------------------------------------------------------

 Structure from the checkpoint file:  "lwpbeSAYang.chk"
 ----------
 [No Title]
 ----------
 Charge =  1 Multiplicity = 1

                         Standard orientation:
 ---------------------------------------------------------------------
 Center     Atomic      Atomic             Coordinates (Angstroms)
 Number     Number       Type             X           Y           Z
 ---------------------------------------------------------------------
      1          6           0        2.415578    0.205107   -0.000909
      2          6           0        1.942682   -1.141928    0.007919
      3          6           0        0.565725   -1.361387    0.012156
      4          6           0       -0.359256   -0.269343    0.008428
      5          6           0        0.126554    1.076203   -0.003692
      6          6           0        1.494495    1.301436   -0.006408
      7          8           0        3.730594    0.427444   -0.005068
      8          8           0        2.912039   -2.081385    0.011155
      9          6           0        2.509844   -3.462366    0.020516
     10          8           0        2.134546    2.503407   -0.016263
     11          6           0        1.339596    3.705000   -0.022561
     12          6           0       -1.744413   -0.582034    0.013532
     13          6           0       -2.818029    0.314468    0.020006
     14          6           0       -4.143636   -0.116838   -0.000987
     15          8           0       -5.111682    0.796010    0.127664
     16          8           0       -4.443822   -1.411887   -0.158650
     17          1           0        0.173630   -2.380425    0.019136
     18          1           0       -0.568442    1.916526   -0.010656
     19          1           0        3.876153    1.401648   -0.011863
     20          1           0        3.445478   -4.035015    0.021808
     21          1           0        1.929092   -3.696819    0.929878
     22          1           0        1.924800   -3.707941   -0.883138
     23          1           0        2.059449    4.532582   -0.029157
     24          1           0        0.711978    3.747951   -0.929025
     25          1           0        0.715210    3.759524    0.885513
     26          1           0       -1.996967   -1.649247    0.010744
     27          1           0       -2.682044    1.397107    0.043143
     28          1           0       -5.992364    0.475105   -0.155942
     29          1           0       -5.344219   -1.639620    0.150858
 ---------------------------------------------------------------------

 SCF Done:  E(RPBE-PBE) =  -801.971925865     A.U. after    1 cycles

 The electronic state is 1-A.
 Alpha  occ. eigenvalues --  -19.00463 -19.00392 -18.95994 -18.95782 -18.93828
 Alpha  occ. eigenvalues --  -10.20595 -10.11812 -10.10772 -10.10116 -10.08049
 Alpha  occ. eigenvalues --  -10.07608 -10.06493 -10.06213 -10.06104 -10.05068
 Alpha  occ. eigenvalues --  -10.04802  -1.20472  -1.14042  -1.13429  -1.11301
 Alpha  occ. eigenvalues --   -1.10045  -0.92376  -0.88690  -0.83788  -0.82523
 Alpha  occ. eigenvalues --   -0.78127  -0.77451  -0.74535  -0.72686  -0.71208
 Alpha  occ. eigenvalues --   -0.67582  -0.65003  -0.64250  -0.61672  -0.59806
 Alpha  occ. eigenvalues --   -0.58364  -0.57502  -0.57346  -0.55443  -0.55168
 Alpha  occ. eigenvalues --   -0.54492  -0.53276  -0.52455  -0.50463  -0.50018
 Alpha  occ. eigenvalues --   -0.49725  -0.48788  -0.48202  -0.47081  -0.46829
 Alpha  occ. eigenvalues --   -0.46020  -0.44674  -0.43336  -0.43206  -0.41953
 Alpha  occ. eigenvalues --   -0.41013  -0.38088  -0.33325  -0.31889
 Alpha virt. eigenvalues --   -0.26111  -0.17436  -0.16872  -0.15342  -0.12520
 Alpha virt. eigenvalues --   -0.11994  -0.11561  -0.10955  -0.10638  -0.08611
 Alpha virt. eigenvalues --   -0.08338  -0.07582  -0.07409  -0.06637  -0.06036

 Mulliken charges:
               1
     1  C   -0.385724
     2  C    0.499394
     3  C    0.038393
     4  C   -0.301323
     5  C   -0.211465
     6  C    0.348742
     7  O   -0.396923
     8  O   -0.270428
     9  C   -0.175255
    10  O   -0.370187
    11  C   -0.182084
    12  C    0.097362
    13  C   -0.637882
    14  C    0.783430
    15  O   -0.372508
    16  O   -0.413909
    17  H    0.154779
    18  H    0.139343
    19  H    0.418035
    20  H    0.199458
    21  H    0.178893
    22  H    0.179171
    23  H    0.198847
    24  H    0.185069
    25  H    0.185090
    26  H    0.177513
    27  H    0.171602
    28  H    0.380768
    29  H    0.381798
 Sum of Mulliken charges =   1.00000

 Dipole moment (field-independent basis, Debye):
    X=             -8.9166    Y=              0.0993    Z=              0.0386  Tot=              8.9172
 Quadrupole moment (field-independent basis, Debye-Ang):
   XX=            -10.3107   YY=            -55.1448   ZZ=            -94.6348
   XY=             10.5988   XZ=              0.1613   YZ=             -1.5195

  Exact polarizability: 355.096   6.628 177.956  -0.260   0.213  83.669
 Approx polarizability:1202.395  66.325 313.968  -1.557   1.509 140.505

                      1                      2                      3
                      A                      A                      A
 Frequencies --     45.6973                57.3307                68.1511
 Red. masses --      6.4028                 5.5053                 3.3005
 Frc consts  --      0.0079                 0.0107                 0.0090
 IR Inten    --      0.4284                 1.1246                 7.6476

                      4                      5                      6
                      A                      A                      A
 Frequencies --     69.6970               114.9487               141.7288
 Red. masses --      5.0061                 3.7025                 5.4572
 Frc consts  --      0.0143                 0.0288                 0.0646
 IR Inten    --      1.1096                 0.0404                 1.0324

                      7                      8                      9
                      A                      A                      A
 Frequencies --    165.5839               176.8123               184.0551
 Red. masses --      3.8646                 2.9125                 1.4255
 Frc consts  --      0.0624                 0.0536                 0.0285
 IR Inten    --      2.5053                10.0378                 2.6457

                     10                     11                     12
                      A                      A                      A
 Frequencies --    190.3630               229.4010               236.6951
 Red. masses --      3.5512                 1.2948                 4.7917
 Frc consts  --      0.0758                 0.0401                 0.1582
 IR Inten    --      9.8967                 5.2729                 1.4502

                     13                     14                     15
                      A                      A                      A
 Frequencies --    254.8325               288.1022               298.4838
 Red. masses --      1.9376                 2.0452                 3.4887
 Frc consts  --      0.0741                 0.1000                 0.1831
 IR Inten    --     24.0447                84.8655                62.9560

                     16                     17                     18
                      A                      A                      A
 Frequencies --    334.0011               349.4508               365.0659
 Red. masses --      1.9713                 4.3135                 4.3209
 Frc consts  --      0.1296                 0.3104                 0.3393
 IR Inten    --    121.0761                 3.7426                 0.4322

                     19                     20                     21
                      A                      A                      A
 Frequencies --    394.8386               402.0504               483.2135
 Red. masses --      1.2522                 2.8563                 6.0337
 Frc consts  --      0.1150                 0.2720                 0.8301
 IR Inten    --    209.4580                28.9582                 3.7196

                     22                     23                     24
                      A                      A                      A
 Frequencies --    509.2672               512.9849               538.5807
 Red. masses --      6.5756                 4.8717                 2.7519
 Frc consts  --      1.0048                 0.7553                 0.4703
 IR Inten    --      6.5048                14.5058                14.6032

                     25                     26                     27
                      A                      A                      A
 Frequencies --    561.9834               570.0803               612.4945
 Red. masses --      3.6781                 3.7166                 1.2813
 Frc consts  --      0.6844                 0.7116                 0.2832
 IR Inten    --     10.0162                 4.2338                78.2952

                     28                     29                     30
                      A                      A                      A
 Frequencies --    644.6268               657.4380               690.8900
 Red. masses --      4.8510                 4.4574                 5.0270
 Frc consts  --      1.1877                 1.1351                 1.4138
 IR Inten    --      3.7842                 7.0843                42.1038

                     31                     32                     33
                      A                      A                      A
 Frequencies --    707.8594               786.4701               805.4897
 Red. masses --      9.4035                 1.5536                 1.3518
 Frc consts  --      2.7761                 0.5662                 0.5167
 IR Inten    --      0.1783                 6.5381                34.8500

                     34                     35                     36
                      A                      A                      A
 Frequencies --    811.8354               832.9634               906.2940
 Red. masses --      5.6322                 1.5732                 5.3982
 Frc consts  --      2.1871                 0.6431                 2.6124
 IR Inten    --      2.2658                15.8455                 5.7014

                     37                     38                     39
                      A                      A                      A
 Frequencies --    944.2013               952.8271               985.2976
 Red. masses --      1.3352                 4.4144                 4.2849
 Frc consts  --      0.7014                 2.3613                 2.4509
 IR Inten    --     51.5608               148.3066                14.4882

                     40                     41                     42
                      A                      A                      A
 Frequencies --   1029.4635              1111.8161              1118.6759
 Red. masses --      4.2861                 3.0601                 1.1616
 Frc consts  --      2.6763                 2.2287                 0.8565
 IR Inten    --      0.6744               249.1582               198.3529

                     43                     44                     45
                      A                      A                      A
 Frequencies --   1126.9217              1130.4182              1133.4061
 Red. masses --      1.2724                 1.2649                 1.4988
 Frc consts  --      0.9520                 0.9523                 1.1344
 IR Inten    --      0.6711                 0.4191               710.7353

                     46                     47                     48
                      A                      A                      A
 Frequencies --   1164.0666              1166.3239              1188.3339
 Red. masses --      1.4098                 1.3708                 1.7123
 Frc consts  --      1.1256                 1.0987                 1.4247
 IR Inten    --      8.5438                 6.5254                35.0187

                     49                     50                     51
                      A                      A                      A
 Frequencies --   1222.7067              1240.2818              1266.4848
 Red. masses --      1.8223                 1.7214                 1.6213
 Frc consts  --      1.6051                 1.5602                 1.5322
 IR Inten    --    255.0647                 1.6264               263.5493

                     52                     53                     54
                      A                      A                      A
 Frequencies --   1286.1916              1308.7711              1351.7272
 Red. masses --      1.5881                 3.2069                 2.9589
 Frc consts  --      1.5479                 3.2364                 3.1853
 IR Inten    --      2.8415                61.4885               263.6424

                     55                     56                     57
                      A                      A                      A
 Frequencies --   1392.7375              1417.7785              1424.6146
 Red. masses --      3.7039                 2.9755                 1.3352
 Frc consts  --      4.2330                 3.5239                 1.5966
 IR Inten    --    495.1883               190.2765                25.6314

                     58                     59                     60
                      A                      A                      A
 Frequencies --   1438.1801              1445.7301              1448.3302
 Red. masses --      1.5606                 1.0441                 1.0447
 Frc consts  --      1.9018                 1.2857                 1.2911
 IR Inten    --     78.4604                14.3590                14.6354

                     61                     62                     63
                      A                      A                      A
 Frequencies --   1450.1765              1451.1230              1490.4753
 Red. masses --      1.0557                 1.0901                 5.3329
 Frc consts  --      1.3081                 1.3525                 6.9801
 IR Inten    --     33.8158               119.3949               317.8506

                     64                     65                     66
                      A                      A                      A
 Frequencies --   1495.1296              1556.8405              1573.4545
 Red. masses --      4.9483                 4.6614                 5.5422
 Frc consts  --      6.5173                 6.6566                 8.0842
 IR Inten    --    444.9796                63.8174               246.5558

                     67                     68                     69
                      A                      A                      A
 Frequencies --   1598.2984              1632.8938              2965.9086
 Red. masses --      5.3492                 5.3849                 1.0336
 Frc consts  --      8.0511                 8.4595                 5.3568
 IR Inten    --    371.7589               900.7950                29.2559

                     70                     71                     72
                      A                      A                      A
 Frequencies --   2974.2920              3044.1072              3056.0093
 Red. masses --      1.0327                 1.1073                 1.1079
 Frc consts  --      5.3824                 6.0455                 6.0964
 IR Inten    --     22.2475                19.8546                15.5043

                     73                     74                     75
                      A                      A                      A
 Frequencies --   3111.2547              3119.1616              3121.7705
 Red. masses --      1.0892                 1.1009                 1.1021
 Frc consts  --      6.2119                 6.3107                 6.3283
 IR Inten    --      0.9405                 3.6507                 2.7338

                     76                     77                     78
                      A                      A                      A
 Frequencies --   3159.0396              3165.3521              3172.7385
 Red. masses --      1.0901                 1.0904                 1.0892
 Frc consts  --      6.4097                 6.4368                 6.4596
 IR Inten    --      1.3715                 2.2107                 0.3252

                     79                     80                     81
                      A                      A                      A
 Frequencies --   3575.5572              3663.3715              3672.4757
 Red. masses --      1.0648                 1.0675                 1.0657
 Frc consts  --      8.0208                 8.4406                 8.4688
 IR Inten    --    304.3256                82.2753               490.6469

 - Thermochemistry -
 -------------------
 Temperature   298.150 Kelvin.  Pressure   1.00000 Atm.
 Atom     1 has atomic number  6 and mass  12.00000

 Molecular mass:   225.07630 amu.
 Principal axes and moments of inertia in atomic units:
                           1         2         3
     Eigenvalues --  2564.697626671.224859206.92555
           X            0.99999  -0.00351   0.00002
           Y            0.00351   0.99999  -0.00125
           Z           -0.00002   0.00125   1.00000
 This molecule is an asymmetric top.
 Rotational symmetry number  1.
 Warning -- assumption of classical behavior for rotation
           may cause significant error
 Rotational temperatures (Kelvin)      0.03377     0.01298     0.00941
 Rotational constants (GHZ):           0.70369     0.27053     0.19602
 Zero-point vibrational energy     588230.6 (Joules/Mol)
                                  140.59049 (Kcal/Mol)
 Warning -- explicit consideration of  27 degrees of freedom as
           vibrations may cause significant error
 Vibrational temperatures:     65.75    82.49    98.05   100.28   165.39
          (Kelvin)            203.92   238.24   254.39   264.81   273.89
                              330.06   340.55   366.65   414.51   429.45
                              480.55   502.78   525.25   568.08   578.46
                              695.24   732.72   738.07   774.90   808.57
                              820.22   881.24   927.47   945.91   994.04
                             1018.45  1131.55  1158.92  1168.05  1198.45
                             1303.95  1358.49  1370.90  1417.62  1481.17
                             1599.65  1609.52  1621.39  1626.42  1630.72
                             1674.83  1678.08  1709.75  1759.20  1784.49
                             1822.19  1850.54  1883.03  1944.83  2003.84
                             2039.86  2049.70  2069.22  2080.08  2083.82
                             2086.48  2087.84  2144.46  2151.16  2239.94
                             2263.85  2299.59  2349.37  4267.28  4279.34
                             4379.79  4396.91  4476.40  4487.77  4491.53
                             4545.15  4554.23  4564.86  5144.42  5270.77
                             5283.87

 Zero-point correction=                           0.224045 (Hartree/Particle)
 Thermal correction to Energy=                    0.240650
 Thermal correction to Enthalpy=                  0.241594
 Thermal correction to Gibbs Free Energy=         0.179814
 Sum of electronic and zero-point Energies=           -801.747881
 Sum of electronic and thermal Energies=              -801.731276
 Sum of electronic and thermal Enthalpies=            -801.730332
 Sum of electronic and thermal Free Energies=         -801.792112

                     E (Thermal)             CV                S
                      KCal/Mol        Cal/Mol-Kelvin    Cal/Mol-Kelvin
 Total                  151.010             61.894            130.027
 Electronic               0.000              0.000              0.000
 Translational            0.889              2.981             42.136
 Rotational               0.889              2.981             33.421
 Vibrational            149.233             55.933             54.470
 Vibration     1          0.595              1.979              4.995
 Vibration     2          0.596              1.975              4.547
 Vibration     3          0.598              1.969              4.206
 Vibration     4          0.598              1.969              4.162
 Vibration     5          0.608              1.937              3.184
 Vibration     6          0.615              1.912              2.780
 Vibration     7          0.624              1.885              2.485
 Vibration     8          0.628              1.871              2.362
 Vibration     9          0.631              1.862              2.287
 Vibration    10          0.634              1.853              2.224
 Vibration    11          0.652              1.796              1.884
 Vibration    12          0.656              1.785              1.828
 Vibration    13          0.665              1.755              1.697
 Vibration    14          0.685              1.696              1.485
 Vibration    15          0.692              1.677              1.425
 Vibration    16          0.716              1.608              1.241
 Vibration    17          0.727              1.576              1.169
 Vibration    18          0.738              1.544              1.100
 Vibration    19          0.762              1.481              0.982
 Vibration    20          0.768              1.466              0.955
 Vibration    21          0.839              1.287              0.701
 Vibration    22          0.864              1.229              0.635
 Vibration    23          0.868              1.221              0.626
 Vibration    24          0.894              1.165              0.568
 Vibration    25          0.918              1.114              0.520
 Vibration    26          0.926              1.096              0.504
 Vibration    27          0.972              1.005              0.429

 Optimization completed.
    -- Stationary point found.
 Normal termination of Gaussian 09 at Sun May 19 23:26:33 2024.
