 Gaussian 09, Revision E.01,
 Gaussian 09:  ES64L-G09RevE.01 30-Nov-2015

 -----------------------------
 # opt freq pbepbe/6-31+g(d,p)
 -----------------------------

 ----------
 [No Title]
 ----------
 Symbolic Z-matrix:
 Charge =  0 Multiplicity = 1

 SCF Done:  E(RPBE-PBE) =  -801.602876873     A.U. after   18 cycles
 SCF Done:  E(RPBE-PBE) =  -801.604594216     A.U. after   13 cycles
 SCF Done:  E(RPBE-PBE) =  -801.604635462     A.U. after   11 cycles
 SCF Done:  E(RPBE-PBE) =  -801.604630686     A.U. after   11 cycles
 SCF Done:  E(RPBE-PBE) =  -801.604641162     A.U. after   11 cycles
 SCF Done:  E(RPBE-PBE) =  -801.604642375     A.U. after   10 cycles
 SCF Done:  E(RPBE-PBE) =  -801.604642896     A.U. after   10 cycles
 SCF Done:  E(RPBE-PBE) =  -801.604647938     A.U. after   12 cycles
 SCF Done:  E(RPBE-PBE) =  -801.508658019     A.U. after   16 cycles
 SCF Done:  E(RPBE-PBE) =  -801.604648820     A.U. after   11 cycles
 SCF Done:  E(RPBE-PBE) =  -801.622193306     A.U. after   12 cycles
 SCF Done:  E(RPBE-PBE) =  -801.622260149     A.U. after   12 cycles
 SCF Done:  E(RPBE-PBE) =  -801.622322197     A.U. after   12 cycles
 SCF Done:  E(RPBE-PBE) =  -801.622388944     A.U. after   12 cycles
 SCF Done:  E(RPBE-PBE) =  -801.622390581     A.U. after   11 cycles
 SCF Done:  E(RPBE-PBE) =  -801.622390749     A.U. after   10 cycles
 SCF Done:  E(RPBE-PBE) =  -801.622390851     A.U. after    9 cycles
 SCF Done:  E(RPBE-PBE) =  -801.622390928     A.U. after    9 cycles
 SCF Done:  E(RPBE-PBE) =  -801.622390954     A.U. after    9 cycles
 Optimization completed.
    -- Stationary point found.
 Normal termination of Gaussian 09 at Sun May 19 16:53:11 2024.

 ----------------------------------------------------------------------
 #N Geom=AllCheck Guess=TCheck SCRF=Check GenChk RPBEPBE/6-31+G(d,p) Fr
 eq
 ----------------------------------------------------------------------

 Structure from the checkpoint file:  "lwpbeSA.chk"
 ----------
 [No Title]
 ----------
 Charge =  0 Multiplicity = 1

                         Standard orientation:
 ---------------------------------------------------------------------
 Center     Atomic      Atomic             Coordinates (Angstroms)
 Number     Number       Type             X           Y           Z
 ---------------------------------------------------------------------
      1          6           0       -2.401373   -0.212550    0.000031
      2          6           0       -1.924766    1.117976    0.000026
      3          6           0       -0.540400    1.348952    0.000000
      4          6           0        0.385011    0.276242   -0.000016
      5          6           0       -0.098931   -1.055632   -0.000017
      6          6           0       -1.475071   -1.284367   -0.000001
      7          8           0       -3.740886   -0.451111    0.000062
      8          8           0       -2.891655    2.084368    0.000031
      9          6           0       -2.457678    3.445909   -0.000054
     10          8           0       -2.093660   -2.517323   -0.000036
     11          6           0       -1.260705   -3.680758   -0.000042
     12          6           0        1.804703    0.596385   -0.000018
     13          6           0        2.860996   -0.262891    0.000028
     14          6           0        4.235387    0.254586    0.000007
     15          8           0        5.156467   -0.769704    0.000042
     16          8           0        4.583370    1.435706   -0.000028
     17          1           0       -0.154585    2.370701    0.000008
     18          1           0        0.601331   -1.892255   -0.000049
     19          1           0       -3.850530   -1.425722    0.000140
     20          1           0       -3.377285    4.046645   -0.000090
     21          1           0       -1.864414    3.680623    0.903053
     22          1           0       -1.864409    3.680513   -0.903185
     23          1           0       -1.946500   -4.538606   -0.000103
     24          1           0       -0.625682   -3.713276   -0.903656
     25          1           0       -0.625718   -3.713279    0.903591
     26          1           0        2.057417    1.665280   -0.000062
     27          1           0        2.745673   -1.350374    0.000083
     28          1           0        6.032574   -0.328853    0.000031
 ---------------------------------------------------------------------

 SCF Done:  E(RPBE-PBE) =  -801.622390954     A.U. after    1 cycles

 The electronic state is 1-A.
 Alpha  occ. eigenvalues --  -18.84299 -18.82742 -18.82537 -18.82188 -18.76230
 Alpha  occ. eigenvalues --  -10.02140  -9.98106  -9.97845  -9.97632  -9.97586
 Alpha  occ. eigenvalues --   -9.96252  -9.93080  -9.92954  -9.92104  -9.91963
 Alpha  occ. eigenvalues --   -9.91550  -1.01286  -1.00371  -0.99397  -0.97786
 Alpha  occ. eigenvalues --   -0.91706  -0.79361  -0.73608  -0.70582  -0.69090
 Alpha  occ. eigenvalues --   -0.65810  -0.64121  -0.60922  -0.56075  -0.55415
 Alpha  occ. eigenvalues --   -0.52121  -0.50079  -0.49063  -0.46369  -0.45963
 Alpha  occ. eigenvalues --   -0.44263  -0.43961  -0.42550  -0.42108  -0.41599
 Alpha  occ. eigenvalues --   -0.40803  -0.38888  -0.38706  -0.38030  -0.36807
 Alpha  occ. eigenvalues --   -0.36735  -0.34655  -0.33395  -0.32596  -0.32462
 Alpha  occ. eigenvalues --   -0.31769  -0.31690  -0.29987  -0.29450  -0.27211
 Alpha  occ. eigenvalues --   -0.24305  -0.22851  -0.21109  -0.18773
 Alpha virt. eigenvalues --   -0.09769  -0.03304  -0.02525  -0.01936  -0.01751
 Alpha virt. eigenvalues --   -0.00973  -0.00431   0.00917   0.01811   0.02409
 Alpha virt. eigenvalues --    0.02501   0.03421   0.03519   0.04389   0.04531

 Mulliken charges:
               1
     1  C   -0.433016
     2  C    0.471223
     3  C    0.082036
     4  C   -0.451990
     5  C   -0.220877
     6  C    0.339158
     7  O   -0.471183
     8  O   -0.283511
     9  C   -0.182696
    10  O   -0.379569
    11  C   -0.189535
    12  C    0.168167
    13  C   -0.624866
    14  C    0.703416
    15  O   -0.416552
    16  O   -0.473770
    17  H    0.136636
    18  H    0.124350
    19  H    0.398133
    20  H    0.173438
    21  H    0.169143
    22  H    0.169143
    23  H    0.172559
    24  H    0.175291
    25  H    0.175293
    26  H    0.165694
    27  H    0.140612
    28  H    0.363275
 Sum of Mulliken charges =   0.00000

 Dipole moment (field-independent basis, Debye):
    X=             -1.8506    Y=             -2.5421    Z=              0.0000  Tot=              3.1443
 Quadrupole moment (field-independent basis, Debye-Ang):
   XX=           -104.3390   YY=            -74.5155   ZZ=            -97.0399
   XY=             -4.8016   XZ=             -0.0000   YZ=             -0.0003

  Exact polarizability: 282.636  -1.639 186.374  -0.000  -0.000  88.683
 Approx polarizability: 602.055  -0.062 338.929  -0.002  -0.001 148.492

                      1                      2                      3
                      A                      A                      A
 Frequencies --     34.7908                60.0454                63.9618
 Red. masses --      6.8129                 3.2254                 6.3142
 Frc consts  --      0.0049                 0.0069                 0.0152
 IR Inten    --      0.3620                 7.8233                 0.1506

                      4                      5                      6
                      A                      A                      A
 Frequencies --     67.5085                98.2102               137.2882
 Red. masses --      5.7191                 3.6058                 4.1861
 Frc consts  --      0.0154                 0.0205                 0.0465
 IR Inten    --      0.4024                 0.0393                 0.0674

                      7                      8                      9
                      A                      A                      A
 Frequencies --    157.0005               169.9548               191.6539
 Red. masses --      3.8039                 4.2518                 4.6178
 Frc consts  --      0.0552                 0.0724                 0.0999
 IR Inten    --      3.8385                 4.1032                 1.7095

                     10                     11                     12
                      A                      A                      A
 Frequencies --    196.2382               230.4700               239.9381
 Red. masses --      1.4142                 1.3160                 5.3294
 Frc consts  --      0.0321                 0.0412                 0.1808
 IR Inten    --      0.0198                 0.2030                 1.2173

                     13                     14                     15
                      A                      A                      A
 Frequencies --    265.6572               287.7050               287.9034
 Red. masses --      2.2721                 6.7805                 2.0956
 Frc consts  --      0.0945                 0.3307                 0.1023
 IR Inten    --      0.1750                 5.5985                 0.0354

                     16                     17                     18
                      A                      A                      A
 Frequencies --    353.4004               364.9093               379.1129
 Red. masses --      4.2517                 4.5490                 4.3191
 Frc consts  --      0.3129                 0.3569                 0.3657
 IR Inten    --      0.5993                 1.3100                 0.7142

                     19                     20                     21
                      A                      A                      A
 Frequencies --    484.3231               492.4087               494.0407
 Red. masses --      6.2694                 4.9859                 1.1061
 Frc consts  --      0.8665                 0.7123                 0.1591
 IR Inten    --      9.0261                28.0213                88.8970

                     22                     23                     24
                      A                      A                      A
 Frequencies --    520.4056               550.1285               560.9518
 Red. masses --      6.8312                 2.2900                 3.5904
 Frc consts  --      1.0900                 0.4083                 0.6656
 IR Inten    --      1.7388                10.3967                 6.7270

                     25                     26                     27
                      A                      A                      A
 Frequencies --    578.6743               597.8006               647.7089
 Red. masses --      5.2853                 1.6257                 4.1903
 Frc consts  --      1.0428                 0.3423                 1.0357
 IR Inten    --     68.7949                78.6000                 6.4038

                     28                     29                     30
                      A                      A                      A
 Frequencies --    686.5072               701.9714               717.7381
 Red. masses --      4.9316                 7.7519                 3.6411
 Frc consts  --      1.3694                 2.2506                 1.1051
 IR Inten    --     12.7831                 0.1505                14.8714

                     31                     32                     33
                      A                      A                      A
 Frequencies --    784.0140               799.0746               803.6570
 Red. masses --      1.4463                 1.4837                 5.5750
 Frc consts  --      0.5238                 0.5582                 2.1215
 IR Inten    --     18.6580                33.0985                 9.2748

                     34                     35                     36
                      A                      A                      A
 Frequencies --    837.7063               908.4469               949.9926
 Red. masses --      2.0075                 5.4003                 4.0739
 Frc consts  --      0.8300                 2.6258                 2.1662
 IR Inten    --      8.5537                 9.2408                 8.5098

                     37                     38                     39
                      A                      A                      A
 Frequencies --    975.7142               986.3200              1046.9346
 Red. masses --      1.1687                 4.1167                 5.0341
 Frc consts  --      0.6556                 2.3596                 3.2509
 IR Inten    --     29.5381                 4.1357                 2.9468

                     40                     41                     42
                      A                      A                      A
 Frequencies --   1091.1553              1119.1480              1128.5859
 Red. masses --      2.3429                 3.8476                 1.2761
 Frc consts  --      1.6435                 2.8393                 0.9576
 IR Inten    --    717.7161               260.0665                 0.5923

                     43                     44                     45
                      A                      A                      A
 Frequencies --   1132.0182              1156.5719              1168.8701
 Red. masses --      1.2688                 1.6123                 1.3917
 Frc consts  --      0.9580                 1.2707                 1.1203
 IR Inten    --      0.2595                32.4019                 6.2529

                     46                     47                     48
                      A                      A                      A
 Frequencies --   1177.1549              1213.2880              1220.0468
 Red. masses --      1.5904                 1.6755                 1.4930
 Frc consts  --      1.2985                 1.4532                 1.3094
 IR Inten    --     30.5836               195.2076                68.9918

                     49                     50                     51
                      A                      A                      A
 Frequencies --   1257.4550              1267.7407              1298.8272
 Red. masses --      2.9555                 1.5984                 1.4229
 Frc consts  --      2.7534                 1.5135                 1.4143
 IR Inten    --     12.3593               291.0526                10.0887

                     52                     53                     54
                      A                      A                      A
 Frequencies --   1315.9943              1358.9142              1402.2966
 Red. masses --      2.4632                 4.0510                 2.9058
 Frc consts  --      2.5134                 4.4076                 3.3666
 IR Inten    --    214.3507                83.0610               141.2515

                     55                     56                     57
                      A                      A                      A
 Frequencies --   1419.8369              1435.6841              1441.9791
 Red. masses --      1.5274                 1.3500                 1.0444
 Frc consts  --      1.8142                 1.6395                 1.2795
 IR Inten    --     26.3538                 7.5127                10.2314

                     58                     59                     60
                      A                      A                      A
 Frequencies --   1444.9695              1455.9363              1457.2478
 Red. masses --      1.0451                 2.6623                 1.1196
 Frc consts  --      1.2856                 3.3250                 1.4008
 IR Inten    --     10.1079               115.4324                82.3829

                     61                     62                     63
                      A                      A                      A
 Frequencies --   1458.1120              1508.9517              1588.2269
 Red. masses --      1.0718                 4.6962                 6.5490
 Frc consts  --      1.3427                 6.3001                 9.7331
 IR Inten    --     43.6749               301.1653               161.5588

                     64                     65                     66
                      A                      A                      A
 Frequencies --   1600.0362              1631.3637              1720.8273
 Red. masses --      6.0147                 6.3940                 8.5777
 Frc consts  --      9.0724                10.0260                14.9657
 IR Inten    --    174.5140               339.1600               326.1301

                     67                     68                     69
                      A                      A                      A
 Frequencies --   2948.8061              2957.7778              3017.2089
 Red. masses --      1.0341                 1.0331                 1.1060
 Frc consts  --      5.2978                 5.3253                 5.9321
 IR Inten    --     57.6438                44.7019                33.1431

                     70                     71                     72
                      A                      A                      A
 Frequencies --   3029.6755              3089.5341              3095.2943
 Red. masses --      1.1066                 1.0884                 1.0995
 Frc consts  --      5.9843                 6.1208                 6.2063
 IR Inten    --     27.2518                 1.5991                16.8732

                     73                     74                     75
                      A                      A                      A
 Frequencies --   3098.5831              3135.7994              3151.6093
 Red. masses --      1.1008                 1.0897                 1.0893
 Frc consts  --      6.2269                 6.3130                 6.3748
 IR Inten    --     14.2361                 7.7763                 3.2061

                     76                     77                     78
                      A                      A                      A
 Frequencies --   3161.0285              3630.2785              3647.4554
 Red. masses --      1.0891                 1.0648                 1.0640
 Frc consts  --      6.4120                 8.2682                 8.3398
 IR Inten    --      3.3253               148.8936                87.9083

 - Thermochemistry -
 -------------------
 Temperature   298.150 Kelvin.  Pressure   1.00000 Atm.
 Atom     1 has atomic number  6 and mass  12.00000

 Molecular mass:   224.06847 amu.
 Principal axes and moments of inertia in atomic units:
                           1         2         3
     Eigenvalues --  2537.353206673.050329186.90689
           X            0.99995  -0.01041   0.00000
           Y            0.01041   0.99995  -0.00000
           Z           -0.00000   0.00000   1.00000
 This molecule is an asymmetric top.
 Rotational symmetry number  1.
 Warning -- assumption of classical behavior for rotation
           may cause significant error
 Rotational temperatures (Kelvin)      0.03414     0.01298     0.00943
 Rotational constants (GHZ):           0.71127     0.27045     0.19645
 Zero-point vibrational energy     557128.2 (Joules/Mol)
                                  133.15683 (Kcal/Mol)
 Warning -- explicit consideration of  26 degrees of freedom as
           vibrations may cause significant error
 Vibrational temperatures:     50.06    86.39    92.03    97.13   141.30
          (Kelvin)            197.53   225.89   244.53   275.75   282.34
                              331.59   345.22   382.22   413.94   414.23
                              508.46   525.02   545.46   696.83   708.47
                              710.81   748.75   791.51   807.08   832.58
                              860.10   931.91   987.73  1009.98  1032.66
                             1128.02  1149.69  1156.28  1205.27  1307.05
                             1366.83  1403.83  1419.09  1506.30  1569.93
                             1610.20  1623.78  1628.72  1664.05  1681.74
                             1693.66  1745.65  1755.37  1809.20  1823.99
                             1868.72  1893.42  1955.17  2017.59  2042.83
                             2065.63  2074.68  2078.99  2094.76  2096.65
                             2097.90  2171.04  2285.10  2302.09  2347.17
                             2475.88  4242.67  4255.58  4341.09  4359.02
                             4445.14  4453.43  4458.16  4511.71  4534.46
                             4548.01  5223.15  5247.87

 Zero-point correction=                           0.212199 (Hartree/Particle)
 Thermal correction to Energy=                    0.228387
 Thermal correction to Enthalpy=                  0.229331
 Thermal correction to Gibbs Free Energy=         0.167837
 Sum of electronic and zero-point Energies=           -801.410192
 Sum of electronic and thermal Energies=              -801.394004
 Sum of electronic and thermal Enthalpies=            -801.393060
 Sum of electronic and thermal Free Energies=         -801.454554

                     E (Thermal)             CV                S
                      KCal/Mol        Cal/Mol-Kelvin    Cal/Mol-Kelvin
 Total                  143.315             59.819            129.425
 Electronic               0.000              0.000              0.000
 Translational            0.889              2.981             42.123
 Rotational               0.889              2.981             33.408
 Vibrational            141.537             53.857             53.893
 Vibration     1          0.594              1.983              5.536
 Vibration     2          0.597              1.973              4.456
 Vibration     3          0.597              1.972              4.331
 Vibration     4          0.598              1.970              4.225
 Vibration     5          0.604              1.950              3.490
 Vibration     6          0.614              1.916              2.841
 Vibration     7          0.621              1.895              2.586
 Vibration     8          0.625              1.879              2.436
 Vibration     9          0.634              1.851              2.212
 Vibration    10          0.636              1.845              2.168
 Vibration    11          0.652              1.794              1.875
 Vibration    12          0.657              1.779              1.803
 Vibration    13          0.671              1.736              1.624
 Vibration    14          0.685              1.697              1.487
 Vibration    15          0.685              1.696              1.486
 Vibration    16          0.730              1.568              1.151
 Vibration    17          0.738              1.544              1.101
 Vibration    18          0.749              1.515              1.043
 Vibration    19          0.840              1.285              0.699
 Vibration    20          0.848              1.267              0.677
 Vibration    21          0.850              1.263              0.673
 Vibration    22          0.875              1.205              0.609
 Vibration    23          0.905              1.139              0.544
 Vibration    24          0.917              1.116              0.522
 Vibration    25          0.935              1.077              0.488
 Vibration    26          0.956              1.036              0.453

 Optimization completed.
    -- Stationary point found.
 Normal termination of Gaussian 09 at Sun May 19 16:58:05 2024.
