 Gaussian 09, Revision E.01,
 Gaussian 09:  ES64L-G09RevE.01 30-Nov-2015

 -----------------------------
 # opt freq wb97xd/6-31+g(d,p)
 -----------------------------

 ----------
 [No Title]
 ----------
 Symbolic Z-matrix:
 Charge =  1 Multiplicity = 1

 SCF Done:  E(RwB97XD) =  -802.624754361     A.U. after   17 cycles
 SCF Done:  E(RwB97XD) =  -802.624850704     A.U. after   13 cycles
 SCF Done:  E(RwB97XD) =  -802.624856080     A.U. after   12 cycles
 SCF Done:  E(RwB97XD) =  -802.624857077     A.U. after   11 cycles
 SCF Done:  E(RwB97XD) =  -802.624857543     A.U. after   11 cycles
 SCF Done:  E(RwB97XD) =  -802.624857858     A.U. after   11 cycles
 SCF Done:  E(RwB97XD) =  -802.624858110     A.U. after   10 cycles
 SCF Done:  E(RwB97XD) =  -802.624858250     A.U. after   10 cycles
 SCF Done:  E(RwB97XD) =  -802.624858343     A.U. after   10 cycles
 SCF Done:  E(RwB97XD) =  -802.624858421     A.U. after   10 cycles
 SCF Done:  E(RwB97XD) =  -802.624858437     A.U. after    9 cycles
 Optimization completed.
    -- Stationary point found.
 Normal termination of Gaussian 09 at Sun May 19 23:38:12 2024.

 ----------------------------------------------------------------------
 #N Geom=AllCheck Guess=TCheck SCRF=Check GenChk RwB97XD/6-31+G(d,p) Fr
 eq
 ----------------------------------------------------------------------

 Structure from the checkpoint file:  "lwWB97XDSAYang.chk"
 ----------
 [No Title]
 ----------
 Charge =  1 Multiplicity = 1

                         Standard orientation:
 ---------------------------------------------------------------------
 Center     Atomic      Atomic             Coordinates (Angstroms)
 Number     Number       Type             X           Y           Z
 ---------------------------------------------------------------------
      1          6           0        2.394147    0.198164   -0.000628
      2          6           0        1.920188   -1.133691    0.006739
      3          6           0        0.554329   -1.347524    0.008420
      4          6           0       -0.357245   -0.258991    0.006562
      5          6           0        0.131335    1.073289   -0.002845
      6          6           0        1.489062    1.289861   -0.005900
      7          8           0        3.697628    0.410270   -0.004019
      8          8           0        2.873473   -2.074040    0.010464
      9          6           0        2.479449   -3.437953    0.022571
     10          8           0        2.121390    2.483047   -0.015843
     11          6           0        1.342156    3.673379   -0.022946
     12          6           0       -1.734797   -0.560997    0.008271
     13          6           0       -2.797406    0.333290    0.026598
     14          6           0       -4.108474   -0.112270    0.000616
     15          8           0       -5.073656    0.774761    0.114280
     16          8           0       -4.387315   -1.393177   -0.145530
     17          1           0        0.162097   -2.357904    0.013221
     18          1           0       -0.553549    1.911317   -0.009672
     19          1           0        3.867119    1.364983   -0.010327
     20          1           0        3.405628   -4.009288    0.025442
     21          1           0        1.903573   -3.671745    0.925284
     22          1           0        1.899768   -3.687124   -0.873574
     23          1           0        2.055926    4.494494   -0.030319
     24          1           0        0.718607    3.719619   -0.921988
     25          1           0        0.722261    3.732621    0.877827
     26          1           0       -1.989877   -1.619204   -0.006321
     27          1           0       -2.666687    1.406541    0.067292
     28          1           0       -5.959805    0.450879   -0.092760
     29          1           0       -5.293691   -1.641430    0.076338
 ---------------------------------------------------------------------

 SCF Done:  E(RwB97XD) =  -802.624858437     A.U. after    1 cycles

 The electronic state is 1-A.
 Alpha  occ. eigenvalues --  -19.51680 -19.51484 -19.44602 -19.44559 -19.42516
 Alpha  occ. eigenvalues --  -10.63310 -10.51641 -10.50401 -10.49794 -10.49751
 Alpha  occ. eigenvalues --  -10.46919 -10.46121 -10.45961 -10.45406 -10.45057
 Alpha  occ. eigenvalues --  -10.44872  -1.42304  -1.34365  -1.33117  -1.30285
 Alpha  occ. eigenvalues --   -1.28851  -1.11049  -1.07256  -1.01407  -0.99642
 Alpha  occ. eigenvalues --   -0.95026  -0.94025  -0.90629  -0.89518  -0.87471
 Alpha  occ. eigenvalues --   -0.82834  -0.80524  -0.79116  -0.76936  -0.74708
 Alpha  occ. eigenvalues --   -0.73591  -0.72886  -0.71573  -0.69875  -0.69478
 Alpha  occ. eigenvalues --   -0.68606  -0.67352  -0.66280  -0.64158  -0.63864
 Alpha  occ. eigenvalues --   -0.63402  -0.63290  -0.62098  -0.61349  -0.60273
 Alpha  occ. eigenvalues --   -0.59186  -0.57237  -0.55785  -0.55655  -0.54284
 Alpha  occ. eigenvalues --   -0.53430  -0.49724  -0.43604  -0.40713
 Alpha virt. eigenvalues --   -0.18479  -0.08901  -0.06628  -0.05026  -0.03823
 Alpha virt. eigenvalues --   -0.03603  -0.02832  -0.02153  -0.00825  -0.00680
 Alpha virt. eigenvalues --   -0.00002   0.00183   0.00910   0.01022   0.01720

 Mulliken charges:
               1
     1  C   -0.120436
     2  C    0.521336
     3  C   -0.147322
     4  C   -0.424375
     5  C   -0.124507
     6  C    0.328699
     7  O   -0.464654
     8  O   -0.349800
     9  C   -0.122902
    10  O   -0.446062
    11  C   -0.132565
    12  C    0.068603
    13  C   -0.586286
    14  C    0.911927
    15  O   -0.414786
    16  O   -0.461683
    17  H    0.166829
    18  H    0.148544
    19  H    0.432403
    20  H    0.192639
    21  H    0.160492
    22  H    0.160633
    23  H    0.192099
    24  H    0.167438
    25  H    0.167473
    26  H    0.189998
    27  H    0.185591
    28  H    0.398145
    29  H    0.402528
 Sum of Mulliken charges =   1.00000

 Dipole moment (field-independent basis, Debye):
    X=            -10.8481    Y=             -0.2299    Z=              0.0260  Tot=             10.8505
 Quadrupole moment (field-independent basis, Debye-Ang):
   XX=             -8.2046   YY=            -56.1054   ZZ=            -94.0342
   XY=             11.9094   XZ=              0.2020   YZ=             -1.1486

  Exact polarizability: 331.392   6.597 162.458  -0.249   0.346  80.613
 Approx polarizability: 323.068   8.000 168.487  -0.450   0.864  95.656

                      1                      2                      3
                      A                      A                      A
 Frequencies --     42.7443                53.0065                66.8049
 Red. masses --      6.4508                 4.9888                 3.3043
 Frc consts  --      0.0069                 0.0083                 0.0087
 IR Inten    --      1.2294                 0.5824                 9.8814

                      4                      5                      6
                      A                      A                      A
 Frequencies --     73.4303               103.9981               140.5336
 Red. masses --      5.1389                 3.5384                 5.6882
 Frc consts  --      0.0163                 0.0225                 0.0662
 IR Inten    --      0.9517                 0.2193                 1.5459

                      7                      8                      9
                      A                      A                      A
 Frequencies --    169.1850               176.9647               191.6506
 Red. masses --      2.9548                 3.8930                 1.6839
 Frc consts  --      0.0498                 0.0718                 0.0364
 IR Inten    --     47.0497                 1.1629                24.9127

                     10                     11                     12
                      A                      A                      A
 Frequencies --    201.1891               231.3647               254.5910
 Red. masses --      3.1660                 1.3177                 4.9953
 Frc consts  --      0.0755                 0.0416                 0.1908
 IR Inten    --     10.3478               124.8849                 7.4868

                     13                     14                     15
                      A                      A                      A
 Frequencies --    262.1924               292.3550               323.9482
 Red. masses --      1.3844                 1.4883                 6.3465
 Frc consts  --      0.0561                 0.0749                 0.3924
 IR Inten    --      3.7859                31.5090                 5.7744

                     16                     17                     18
                      A                      A                      A
 Frequencies --    337.1527               366.8748               387.9853
 Red. masses --      2.5845                 4.4717                 4.7560
 Frc consts  --      0.1731                 0.3546                 0.4218
 IR Inten    --     25.2842                 2.6762                 1.8142

                     19                     20                     21
                      A                      A                      A
 Frequencies --    411.7527               422.2717               503.2323
 Red. masses --      3.0333                 1.2082                 6.2264
 Frc consts  --      0.3030                 0.1269                 0.9290
 IR Inten    --     10.1412               261.2585                23.9418

                     22                     23                     24
                      A                      A                      A
 Frequencies --    535.4162               537.3611               562.3773
 Red. masses --      6.2154                 5.3497                 2.5561
 Frc consts  --      1.0498                 0.9101                 0.4763
 IR Inten    --     13.9429                19.9952                23.2070

                     25                     26                     27
                      A                      A                      A
 Frequencies --    579.1812               596.1401               609.6061
 Red. masses --      3.7053                 3.8705                 1.3588
 Frc consts  --      0.7323                 0.8104                 0.2975
 IR Inten    --     10.5013                14.3402                81.8049

                     28                     29                     30
                      A                      A                      A
 Frequencies --    681.9107               707.5345               722.1415
 Red. masses --      4.2334                 4.9081                 4.9654
 Frc consts  --      1.1598                 1.4476                 1.5256
 IR Inten    --      0.5953                 7.9149                49.8441

                     31                     32                     33
                      A                      A                      A
 Frequencies --    728.8743               846.5299               848.4293
 Red. masses --     10.0063                 1.9254                 3.8193
 Frc consts  --      3.1320                 0.8130                 1.6198
 IR Inten    --      0.2793                17.2436                 6.7738

                     34                     35                     36
                      A                      A                      A
 Frequencies --    856.0683               864.0825               962.5514
 Red. masses --      1.3839                 1.4007                 5.2606
 Frc consts  --      0.5975                 0.6162                 2.8717
 IR Inten    --      5.6625                53.8212                 1.8714

                     37                     38                     39
                      A                      A                      A
 Frequencies --    999.0698              1007.9896              1032.6566
 Red. masses --      1.3823                 4.3883                 3.6004
 Frc consts  --      0.8129                 2.6270                 2.2621
 IR Inten    --     51.6128               205.5343                21.3939

                     40                     41                     42
                      A                      A                      A
 Frequencies --   1092.8516              1146.2931              1170.2565
 Red. masses --      4.9753                 1.1355                 1.6414
 Frc consts  --      3.5010                 0.8791                 1.3244
 IR Inten    --      3.5764               167.2210              1939.4435

                     43                     44                     45
                      A                      A                      A
 Frequencies --   1179.3669              1181.4055              1187.5847
 Red. masses --      1.2769                 2.7122                 1.2693
 Frc consts  --      1.0464                 2.2303                 1.0547
 IR Inten    --      1.3252               201.3972                 0.9239

                     46                     47                     48
                      A                      A                      A
 Frequencies --   1215.6745              1224.4616              1241.6307
 Red. masses --      1.4176                 1.3636                 1.6047
 Frc consts  --      1.2344                 1.2045                 1.4576
 IR Inten    --      2.5243                 6.2698                24.0640

                     49                     50                     51
                      A                      A                      A
 Frequencies --   1279.6189              1302.3212              1318.9934
 Red. masses --      1.8374                 1.5407                 1.9735
 Frc consts  --      1.7726                 1.5396                 2.0229
 IR Inten    --    202.5215               231.2605               306.0223

                     52                     53                     54
                      A                      A                      A
 Frequencies --   1344.8189              1372.7183              1413.7695
 Red. masses --      1.6303                 3.5287                 3.0478
 Frc consts  --      1.7372                 3.9176                 3.5892
 IR Inten    --     28.4812                64.9645               803.7112

                     55                     56                     57
                      A                      A                      A
 Frequencies --   1441.7065              1488.9890              1495.9117
 Red. masses --      3.9970                 1.2378                 1.4545
 Frc consts  --      4.8948                 1.6168                 1.9177
 IR Inten    --    896.5972                16.6145                95.7094

                     58                     59                     60
                      A                      A                      A
 Frequencies --   1504.9746              1510.3004              1512.1119
 Red. masses --      1.0741                 2.4355                 1.0483
 Frc consts  --      1.4334                 3.2731                 1.4122
 IR Inten    --    122.4522               444.9927                20.7408

                     61                     62                     63
                      A                      A                      A
 Frequencies --   1513.7933              1517.2917              1541.0328
 Red. masses --      1.2489                 1.0430                 4.4609
 Frc consts  --      1.6862                 1.4147                 6.2417
 IR Inten    --    331.2266                14.4377               301.9785

                     64                     65                     66
                      A                      A                      A
 Frequencies --   1564.7856              1634.3968              1643.4543
 Red. masses --      5.1947                 4.9319                 4.6515
 Frc consts  --      7.4942                 7.7621                 7.4022
 IR Inten    --    920.7465                77.5969              1114.8704

                     67                     68                     69
                      A                      A                      A
 Frequencies --   1665.0923              1691.9355              3045.2171
 Red. masses --      5.5158                 5.6205                 1.0344
 Frc consts  --      9.0102                 9.4797                 5.6517
 IR Inten    --    130.1650               579.0652                32.2051

                     70                     71                     72
                      A                      A                      A
 Frequencies --   3053.5269              3125.3692              3136.3743
 Red. masses --      1.0341                 1.1078                 1.1082
 Frc consts  --      5.6812                 6.3753                 6.4225
 IR Inten    --     24.5503                26.0182                20.2733

                     73                     74                     75
                      A                      A                      A
 Frequencies --   3200.4096              3207.3020              3214.1782
 Red. masses --      1.0904                 1.1010                 1.1017
 Frc consts  --      6.5806                 6.6732                 6.7059
 IR Inten    --      0.5682                 6.9058                 5.4999

                     76                     77                     78
                      A                      A                      A
 Frequencies --   3254.6332              3266.1417              3276.2727
 Red. masses --      1.0915                 1.0921                 1.0904
 Frc consts  --      6.8122                 6.8641                 6.8960
 IR Inten    --      1.7676                 2.2945                 0.1988

                     79                     80                     81
                      A                      A                      A
 Frequencies --   3812.6674              3861.2770              3871.3894
 Red. masses --      1.0648                 1.0681                 1.0664
 Frc consts  --      9.1196                 9.3825                 9.4171
 IR Inten    --    364.6907               100.5890               701.1992

 - Thermochemistry -
 -------------------
 Temperature   298.150 Kelvin.  Pressure   1.00000 Atm.
 Atom     1 has atomic number  6 and mass  12.00000

 Molecular mass:   225.07630 amu.
 Principal axes and moments of inertia in atomic units:
                           1         2         3
     Eigenvalues --  2522.817326549.815719045.03906
           X            0.99999  -0.00327   0.00003
           Y            0.00327   0.99999  -0.00098
           Z           -0.00002   0.00098   1.00000
 This molecule is an asymmetric top.
 Rotational symmetry number  1.
 Warning -- assumption of classical behavior for rotation
           may cause significant error
 Rotational temperatures (Kelvin)      0.03433     0.01322     0.00958
 Rotational constants (GHZ):           0.71537     0.27554     0.19953
 Zero-point vibrational energy     612568.5 (Joules/Mol)
                                  146.40737 (Kcal/Mol)
 Warning -- explicit consideration of  27 degrees of freedom as
           vibrations may cause significant error
 Vibrational temperatures:     61.50    76.26    96.12   105.65   149.63
          (Kelvin)            202.20   243.42   254.61   275.74   289.47
                              332.88   366.30   377.24   420.63   466.09
                              485.09   527.85   558.22   592.42   607.55
                              724.04   770.34   773.14   809.13   833.31
                              857.71   877.09   981.12  1017.98  1039.00
                             1048.69  1217.97  1220.70  1231.69  1243.22
                             1384.90  1437.44  1450.27  1485.76  1572.37
                             1649.26  1683.74  1696.84  1699.78  1708.67
                             1749.08  1761.72  1786.43  1841.08  1873.75
                             1897.73  1934.89  1975.03  2034.10  2074.29
                             2142.32  2152.28  2165.32  2172.98  2175.59
                             2178.01  2183.04  2217.20  2251.37  2351.53
                             2364.56  2395.69  2434.31  4381.38  4393.34
                             4496.70  4512.54  4604.67  4614.59  4624.48
                             4682.69  4699.24  4713.82  5485.57  5555.51
                             5570.06

 Zero-point correction=                           0.233315 (Hartree/Particle)
 Thermal correction to Energy=                    0.249461
 Thermal correction to Enthalpy=                  0.250405
 Thermal correction to Gibbs Free Energy=         0.189278
 Sum of electronic and zero-point Energies=           -802.391543
 Sum of electronic and thermal Energies=              -802.375397
 Sum of electronic and thermal Enthalpies=            -802.374453
 Sum of electronic and thermal Free Energies=         -802.435580

                     E (Thermal)             CV                S
                      KCal/Mol        Cal/Mol-Kelvin    Cal/Mol-Kelvin
 Total                  156.539             59.759            128.653
 Electronic               0.000              0.000              0.000
 Translational            0.889              2.981             42.136
 Rotational               0.889              2.981             33.369
 Vibrational            154.762             53.798             53.148
 Vibration     1          0.595              1.980              5.128
 Vibration     2          0.596              1.976              4.702
 Vibration     3          0.598              1.970              4.245
 Vibration     4          0.599              1.967              4.059
 Vibration     5          0.605              1.946              3.378
 Vibration     6          0.615              1.913              2.797
 Vibration     7          0.625              1.880              2.445
 Vibration     8          0.628              1.871              2.360
 Vibration     9          0.634              1.851              2.212
 Vibration    10          0.638              1.838              2.122
 Vibration    11          0.653              1.793              1.868
 Vibration    12          0.665              1.755              1.699
 Vibration    13          0.669              1.742              1.647
 Vibration    14          0.688              1.688              1.460
 Vibration    15          0.709              1.628              1.290
 Vibration    16          0.718              1.601              1.226
 Vibration    17          0.740              1.540              1.093
 Vibration    18          0.756              1.496              1.008
 Vibration    19          0.776              1.445              0.920
 Vibration    20          0.785              1.422              0.884
 Vibration    21          0.859              1.243              0.650
 Vibration    22          0.890              1.172              0.575
 Vibration    23          0.892              1.167              0.571
 Vibration    24          0.918              1.113              0.519
 Vibration    25          0.936              1.076              0.487
 Vibration    26          0.954              1.040              0.456
 Vibration    27          0.969              1.011              0.433

 Optimization completed.
    -- Stationary point found.
 Normal termination of Gaussian 09 at Sun May 19 23:49:19 2024.
