 Gaussian 09, Revision E.01,
 Gaussian 09:  ES64L-G09RevE.01 30-Nov-2015

 -----------------------------
 # opt freq wb97xd/6-31+g(d,p)
 -----------------------------

 ----------
 [No Title]
 ----------
 Symbolic Z-matrix:
 Charge =  0 Multiplicity = 1

 SCF Done:  E(RwB97XD) =  -802.262013907     A.U. after   17 cycles
 SCF Done:  E(RwB97XD) =  -802.262609001     A.U. after   13 cycles
 SCF Done:  E(RwB97XD) =  -802.262646922     A.U. after   13 cycles
 SCF Done:  E(RwB97XD) =  -802.262651055     A.U. after   13 cycles
 SCF Done:  E(RwB97XD) =  -802.262656981     A.U. after   11 cycles
 SCF Done:  E(RwB97XD) =  -802.262664363     A.U. after   11 cycles
 SCF Done:  E(RwB97XD) =  -802.262664809     A.U. after   10 cycles
 SCF Done:  E(RwB97XD) =  -802.262666955     A.U. after   11 cycles
 SCF Done:  E(RwB97XD) =  -802.138233179     A.U. after   18 cycles
 SCF Done:  E(RwB97XD) =  -802.262667911     A.U. after   10 cycles
 SCF Done:  E(RwB97XD) =  -802.279918108     A.U. after   13 cycles
 SCF Done:  E(RwB97XD) =  -802.277810865     A.U. after   15 cycles
 SCF Done:  E(RwB97XD) =  -802.280120722     A.U. after   13 cycles
 SCF Done:  E(RwB97XD) =  -802.280315673     A.U. after   13 cycles
 SCF Done:  E(RwB97XD) =  -802.280491794     A.U. after   13 cycles
 SCF Done:  E(RwB97XD) =  -802.280586005     A.U. after   13 cycles
 SCF Done:  E(RwB97XD) =  -802.280618401     A.U. after   13 cycles
 SCF Done:  E(RwB97XD) =  -802.280621670     A.U. after   12 cycles
 SCF Done:  E(RwB97XD) =  -802.280621950     A.U. after   10 cycles
 Optimization completed.
    -- Stationary point found.
 Normal termination of Gaussian 09 at Sun May 19 18:54:50 2024.

 ----------------------------------------------------------------------
 #N Geom=AllCheck Guess=TCheck SCRF=Check GenChk RwB97XD/6-31+G(d,p) Fr
 eq
 ----------------------------------------------------------------------

 Structure from the checkpoint file:  "lwWB97XDSA.chk"
 ----------
 [No Title]
 ----------
 Charge =  0 Multiplicity = 1

                         Standard orientation:
 ---------------------------------------------------------------------
 Center     Atomic      Atomic             Coordinates (Angstroms)
 Number     Number       Type             X           Y           Z
 ---------------------------------------------------------------------
      1          6           0       -2.383758   -0.214438   -0.012433
      2          6           0       -1.913774    1.103669   -0.008009
      3          6           0       -0.539017    1.337960    0.016814
      4          6           0        0.374389    0.276177    0.030006
      5          6           0       -0.099313   -1.042970    0.028317
      6          6           0       -1.466597   -1.274486    0.007426
      7          8           0       -3.712677   -0.450261   -0.031404
      8          8           0       -2.867593    2.063119   -0.026888
      9          6           0       -2.453919    3.413454   -0.018826
     10          8           0       -2.065359   -2.501355    0.007420
     11          6           0       -1.241378   -3.650704    0.034429
     12          6           0        1.801181    0.596224    0.044453
     13          6           0        2.832729   -0.258588   -0.041476
     14          6           0        4.211381    0.253361   -0.006084
     15          8           0        5.118542   -0.744629   -0.105590
     16          8           0        4.547320    1.415646    0.097079
     17          1           0       -0.158805    2.352916    0.021250
     18          1           0        0.596579   -1.872033    0.050515
     19          1           0       -3.840659   -1.407528   -0.026792
     20          1           0       -3.370097    4.003140   -0.035751
     21          1           0       -1.885557    3.652588    0.888443
     22          1           0       -1.851918    3.653221   -0.904023
     23          1           0       -1.917502   -4.504995    0.029375
     24          1           0       -0.594053   -3.690998   -0.849241
     25          1           0       -0.629376   -3.674147    0.943583
     26          1           0        2.053103    1.652369    0.131150
     27          1           0        2.712590   -1.331392   -0.144719
     28          1           0        5.992281   -0.331248   -0.076438
 ---------------------------------------------------------------------

 SCF Done:  E(RwB97XD) =  -802.280621950     A.U. after    1 cycles

 The electronic state is 1-A.
 Alpha  occ. eigenvalues --  -19.33413 -19.32814 -19.31590 -19.31505 -19.26511
 Alpha  occ. eigenvalues --  -10.43887 -10.37932 -10.37495 -10.37331 -10.37120
 Alpha  occ. eigenvalues --  -10.35767 -10.33460 -10.32802 -10.31765 -10.31606
 Alpha  occ. eigenvalues --  -10.31593  -1.21554  -1.20603  -1.18698  -1.16586
 Alpha  occ. eigenvalues --   -1.11923  -0.97682  -0.91611  -0.87605  -0.86386
 Alpha  occ. eigenvalues --   -0.82427  -0.80462  -0.77239  -0.71744  -0.70832
 Alpha  occ. eigenvalues --   -0.66953  -0.64806  -0.63901  -0.60664  -0.60285
 Alpha  occ. eigenvalues --   -0.58865  -0.58400  -0.57327  -0.56827  -0.55936
 Alpha  occ. eigenvalues --   -0.54531  -0.54238  -0.52124  -0.51571  -0.50662
 Alpha  occ. eigenvalues --   -0.50012  -0.48452  -0.46789  -0.45666  -0.45062
 Alpha  occ. eigenvalues --   -0.44549  -0.44430  -0.42500  -0.42230  -0.40909
 Alpha  occ. eigenvalues --   -0.36764  -0.36125  -0.31342  -0.28242
 Alpha virt. eigenvalues --   -0.00659   0.05818   0.06371   0.06666   0.06790
 Alpha virt. eigenvalues --    0.07291   0.08305   0.08575   0.09216   0.10033
 Alpha virt. eigenvalues --    0.10188   0.11046   0.11411   0.12013   0.12261

 Mulliken charges:
               1
     1  C   -0.165951
     2  C    0.467601
     3  C   -0.121756
     4  C   -0.428904
     5  C   -0.208249
     6  C    0.328057
     7  O   -0.537241
     8  O   -0.361430
     9  C   -0.125625
    10  O   -0.455623
    11  C   -0.134631
    12  C    0.020332
    13  C   -0.389441
    14  C    0.755037
    15  O   -0.472250
    16  O   -0.516034
    17  H    0.145767
    18  H    0.129107
    19  H    0.410677
    20  H    0.165995
    21  H    0.152304
    22  H    0.152119
    23  H    0.165201
    24  H    0.158359
    25  H    0.158838
    26  H    0.175218
    27  H    0.149708
    28  H    0.382813
 Sum of Mulliken charges =  -0.00000

 Dipole moment (field-independent basis, Debye):
    X=             -0.5846    Y=             -2.4974    Z=             -0.0528  Tot=              2.5654
 Quadrupole moment (field-independent basis, Debye-Ang):
   XX=           -102.3795   YY=            -74.1129   ZZ=            -96.1262
   XY=             -5.1000   XZ=             -0.7570   YZ=             -0.3973

  Exact polarizability: 233.257  -4.205 170.012  -0.082   1.055  85.087
 Approx polarizability: 222.242  -4.826 180.946   0.121   1.894  99.912

                      1                      2                      3
                      A                      A                      A
 Frequencies --     22.3757                56.3913                65.6498
 Red. masses --      6.4513                 3.2751                 5.7937
 Frc consts  --      0.0019                 0.0061                 0.0147
 IR Inten    --      0.3493                 8.9661                 0.4807

                      4                      5                      6
                      A                      A                      A
 Frequencies --     69.7135                88.6097               131.9795
 Red. masses --      5.6799                 3.4953                 3.3232
 Frc consts  --      0.0163                 0.0162                 0.0341
 IR Inten    --      0.3880                 0.0050                 0.3640

                      7                      8                      9
                      A                      A                      A
 Frequencies --    156.3214               179.2876               202.2839
 Red. masses --      4.8500                 4.5019                 4.2083
 Frc consts  --      0.0698                 0.0853                 0.1015
 IR Inten    --      3.4134                 3.8977                 1.3406

                     10                     11                     12
                      A                      A                      A
 Frequencies --    211.0799               241.9126               254.6136
 Red. masses --      1.6581                 1.6930                 5.2245
 Frc consts  --      0.0435                 0.0584                 0.1996
 IR Inten    --      0.1902                 0.1626                 1.0469

                     13                     14                     15
                      A                      A                      A
 Frequencies --    287.1928               306.6127               311.2953
 Red. masses --      1.7189                 1.7707                 6.3034
 Frc consts  --      0.0835                 0.0981                 0.3599
 IR Inten    --      0.3393                 0.2519                 5.3983

                     16                     17                     18
                      A                      A                      A
 Frequencies --    372.7858               386.6466               393.7891
 Red. masses --      4.2949                 4.6294                 4.1968
 Frc consts  --      0.3517                 0.4078                 0.3834
 IR Inten    --      0.8447                 0.8226                 1.7439

                     19                     20                     21
                      A                      A                      A
 Frequencies --    471.1027               503.2622               515.5215
 Red. masses --      1.1255                 6.1057                 5.2426
 Frc consts  --      0.1472                 0.9111                 0.8209
 IR Inten    --    101.7391                 8.7640                21.9613

                     22                     23                     24
                      A                      A                      A
 Frequencies --    545.5706               576.8235               593.4584
 Red. masses --      6.7979                 1.9694                 4.3123
 Frc consts  --      1.1921                 0.3861                 0.8948
 IR Inten    --      1.7935                20.9147                 0.6632

                     25                     26                     27
                      A                      A                      A
 Frequencies --    608.4509               625.4784               678.3916
 Red. masses --      5.2826                 1.6804                 4.1928
 Frc consts  --      1.1523                 0.3873                 1.1369
 IR Inten    --     83.3233                87.8718                12.0884

                     28                     29                     30
                      A                      A                      A
 Frequencies --    719.6425               737.1966               759.2049
 Red. masses --      4.7973                 7.3094                 3.6235
 Frc consts  --      1.4638                 2.3404                 1.2305
 IR Inten    --      2.7463                 0.2864                18.7265

                     31                     32                     33
                      A                      A                      A
 Frequencies --    837.9645               848.0067               854.5514
 Red. masses --      5.4581                 1.4800                 1.4838
 Frc consts  --      2.2581                 0.6271                 0.6384
 IR Inten    --     11.0751                58.4243                 0.3354

                     34                     35                     36
                      A                      A                      A
 Frequencies --    897.7851               960.3961               986.4043
 Red. masses --      2.0457                 5.1600                 3.6610
 Frc consts  --      0.9715                 2.8041                 2.0988
 IR Inten    --     13.8976                17.5180                22.7409

                     37                     38                     39
                      A                      A                      A
 Frequencies --   1026.3395              1030.1667              1111.1446
 Red. masses --      3.5578                 1.2176                 5.0512
 Frc consts  --      2.2081                 0.7614                 3.6744
 IR Inten    --      3.8590                31.4909                 2.2378

                     40                     41                     42
                      A                      A                      A
 Frequencies --   1179.0586              1179.5795              1186.0905
 Red. masses --      2.3602                 1.2809                 3.0029
 Frc consts  --      1.9332                 1.0501                 2.4890
 IR Inten    --    633.1144                 2.6516               234.6509

                     43                     44                     45
                      A                      A                      A
 Frequencies --   1187.9300              1205.1859              1221.8017
 Red. masses --      1.2736                 1.6224                 1.4076
 Frc consts  --      1.0589                 1.3884                 1.2381
 IR Inten    --      0.9675                32.9084                 9.8618

                     46                     47                     48
                      A                      A                      A
 Frequencies --   1229.0891              1278.5280              1281.8422
 Red. masses --      1.5800                 1.4458                 1.8721
 Frc consts  --      1.4063                 1.3924                 1.8123
 IR Inten    --     37.6866                27.8961               285.4253

                     49                     50                     51
                      A                      A                      A
 Frequencies --   1313.6653              1319.4818              1353.1079
 Red. masses --      1.9685                 2.8605                 1.4851
 Frc consts  --      2.0015                 2.9343                 1.6021
 IR Inten    --    163.1343                14.3081                12.8681

                     52                     53                     54
                      A                      A                      A
 Frequencies --   1388.5053              1418.7931              1440.7261
 Red. masses --      2.8935                 3.2824                 2.6957
 Frc consts  --      3.2868                 3.8930                 3.2967
 IR Inten    --    312.2278                73.2717               121.7263

                     55                     56                     57
                      A                      A                      A
 Frequencies --   1479.8572              1498.0551              1509.5887
 Red. masses --      1.4372                 1.3051                 1.0569
 Frc consts  --      1.8545                 1.7257                 1.4191
 IR Inten    --     85.5833                20.1924                15.7249

                     58                     59                     60
                      A                      A                      A
 Frequencies --   1511.6049              1512.2843              1515.7458
 Red. masses --      1.0493                 1.0833                 1.5480
 Frc consts  --      1.4126                 1.4598                 2.0955
 IR Inten    --      9.7495                11.9366               108.2485

                     61                     62                     63
                      A                      A                      A
 Frequencies --   1516.8049              1590.2630              1671.1780
 Red. masses --      1.4363                 5.2561                 6.5616
 Frc consts  --      1.9470                 7.8317                10.7970
 IR Inten    --     94.5689               325.5559                58.0054

                     64                     65                     66
                      A                      A                      A
 Frequencies --   1688.2616              1727.2014              1833.2189
 Red. masses --      6.4072                 6.3516                 9.1963
 Frc consts  --     10.7596                11.1640                18.2093
 IR Inten    --    231.3301               358.5514               352.5379

                     67                     68                     69
                      A                      A                      A
 Frequencies --   3033.7089              3041.6482              3106.6157
 Red. masses --      1.0344                 1.0340                 1.1066
 Frc consts  --      5.6089                 5.6365                 6.2926
 IR Inten    --     54.6218                42.5955                36.4555

                     70                     71                     72
                      A                      A                      A
 Frequencies --   3117.5591              3182.4507              3189.2130
 Red. masses --      1.1069                 1.1004                 1.1012
 Frc consts  --      6.3387                 6.5666                 6.5990
 IR Inten    --     30.0240                21.8172                19.3609

                     73                     74                     75
                      A                      A                      A
 Frequencies --   3194.5784              3238.4002              3251.8249
 Red. masses --      1.0901                 1.0916                 1.0905
 Frc consts  --      6.5544                 6.7448                 6.7938
 IR Inten    --      1.0405                 5.5352                 3.1990

                     76                     77                     78
                      A                      A                      A
 Frequencies --   3261.7776              3855.8878              3859.3954
 Red. masses --      1.0902                 1.0645                 1.0650
 Frc consts  --      6.8340                 9.3249                 9.3463
 IR Inten    --      3.0590               135.0192               135.7254

 - Thermochemistry -
 -------------------
 Temperature   298.150 Kelvin.  Pressure   1.00000 Atm.
 Atom     1 has atomic number  6 and mass  12.00000

 Molecular mass:   224.06847 amu.
 Principal axes and moments of inertia in atomic units:
                           1         2         3
     Eigenvalues --  2493.389866577.747949044.41882
           X            0.99994  -0.01063  -0.00026
           Y            0.01063   0.99994  -0.00034
           Z            0.00026   0.00033   1.00000
 This molecule is an asymmetric top.
 Rotational symmetry number  1.
 Warning -- assumption of classical behavior for rotation
           may cause significant error
 Rotational temperatures (Kelvin)      0.03474     0.01317     0.00958
 Rotational constants (GHZ):           0.72381     0.27437     0.19954
 Zero-point vibrational energy     581360.7 (Joules/Mol)
                                  138.94853 (Kcal/Mol)
 Warning -- explicit consideration of  25 degrees of freedom as
           vibrations may cause significant error
 Vibrational temperatures:     32.19    81.13    94.46   100.30   127.49
          (Kelvin)            189.89   224.91   257.95   291.04   303.70
                              348.06   366.33   413.21   441.15   447.88
                              536.35   556.30   566.57   677.81   724.08
                              741.72   784.95   829.92   853.85   875.42
                              899.92   976.05  1035.40  1060.66  1092.33
                             1205.64  1220.09  1229.51  1291.71  1381.79
                             1419.21  1476.67  1482.18  1598.69  1696.40
                             1697.15  1706.52  1709.16  1733.99  1757.90
                             1768.38  1839.51  1844.28  1890.07  1898.44
                             1946.82  1997.75  2041.32  2072.88  2129.18
                             2155.36  2171.96  2174.86  2175.84  2180.82
                             2182.34  2288.03  2404.45  2429.03  2485.05
                             2637.59  4364.83  4376.25  4469.72  4485.47
                             4578.83  4588.56  4596.28  4659.33  4678.64
                             4692.96  5547.76  5552.80

 Zero-point correction=                           0.221429 (Hartree/Particle)
 Thermal correction to Energy=                    0.237130
 Thermal correction to Enthalpy=                  0.238074
 Thermal correction to Gibbs Free Energy=         0.177004
 Sum of electronic and zero-point Energies=           -802.059193
 Sum of electronic and thermal Energies=              -802.043492
 Sum of electronic and thermal Enthalpies=            -802.042547
 Sum of electronic and thermal Free Energies=         -802.103618

                     E (Thermal)             CV                S
                      KCal/Mol        Cal/Mol-Kelvin    Cal/Mol-Kelvin
 Total                  148.802             57.582            128.534
 Electronic               0.000              0.000              0.000
 Translational            0.889              2.981             42.123
 Rotational               0.889              2.981             33.361
 Vibrational            147.024             51.621             53.050
 Vibration     1          0.593              1.985              6.411
 Vibration     2          0.596              1.975              4.580
 Vibration     3          0.597              1.971              4.280
 Vibration     4          0.598              1.969              4.161
 Vibration     5          0.601              1.957              3.691
 Vibration     6          0.612              1.921              2.917
 Vibration     7          0.620              1.896              2.594
 Vibration     8          0.629              1.868              2.336
 Vibration     9          0.639              1.837              2.112
 Vibration    10          0.643              1.824              2.034
 Vibration    11          0.658              1.776              1.789
 Vibration    12          0.665              1.755              1.698
 Vibration    13          0.684              1.698              1.490
 Vibration    14          0.697              1.661              1.381
 Vibration    15          0.700              1.652              1.355
 Vibration    16          0.744              1.528              1.068
 Vibration    17          0.755              1.499              1.013
 Vibration    18          0.761              1.483              0.986
 Vibration    19          0.828              1.314              0.734
 Vibration    20          0.859              1.243              0.650
 Vibration    21          0.871              1.216              0.620
 Vibration    22          0.901              1.149              0.553
 Vibration    23          0.933              1.081              0.491
 Vibration    24          0.951              1.046              0.461
 Vibration    25          0.967              1.014              0.435

 Normal termination of Gaussian 09 at Sun May 19 19:05:40 2024.
