 Gaussian 09, Revision E.01,
 Gaussian 09:  ES64L-G09RevE.01 30-Nov-2015

 ----------------------------
 # opt freq m062x/aug-cc-pvdz
 ----------------------------

 ----------
 [No Title]
 ----------
 Symbolic Z-matrix:
 Charge =  0 Multiplicity = 1

 SCF Done:  E(RM062X) =  -491.998318008     A.U. after   15 cycles
 SCF Done:  E(RM062X) =  -491.998373990     A.U. after   11 cycles
 SCF Done:  E(RM062X) =  -491.998115363     A.U. after   12 cycles
 SCF Done:  E(RM062X) =  -491.998376415     A.U. after    7 cycles
 SCF Done:  E(RM062X) =  -491.998378718     A.U. after   10 cycles
 Optimization completed.
    -- Stationary point found.
 Normal termination of Gaussian 09 at Sun Dec 15 19:08:38 2024.

 ----------------------------------------------------------------------
 #N Geom=AllCheck Guess=TCheck SCRF=Check GenChk RM062X/Aug-CC-pVDZ Fre
 q
 ----------------------------------------------------------------------

 Structure from the checkpoint file:  "pvdzPNA.chk"
 ----------
 [No Title]
 ----------
 Charge =  0 Multiplicity = 1

                         Standard orientation:
 ---------------------------------------------------------------------
 Center     Atomic      Atomic             Coordinates (Angstroms)
 Number     Number       Type             X           Y           Z
 ---------------------------------------------------------------------
      1          6           0       -0.023987    1.215284   -0.000051
      2          6           0       -0.705427   -0.000000   -0.000029
      3          6           0       -0.023987   -1.215284    0.000019
      4          6           0        1.360275   -1.214994    0.000046
      5          6           0        2.074553    0.000000    0.000024
      6          6           0        1.360275    1.214994   -0.000024
      7          7           0        3.441833    0.000000    0.000053
      8          7           0       -2.164485    0.000000   -0.000060
      9          8           0       -2.733822   -1.077597    0.000041
     10          8           0       -2.733822    1.077597   -0.000034
     11          1           0       -0.589564    2.143630   -0.000088
     12          1           0       -0.589564   -2.143630    0.000035
     13          1           0        1.905320   -2.158205    0.000084
     14          1           0        1.905319    2.158205   -0.000041
     15          1           0        3.959000    0.862387    0.000019
     16          1           0        3.959000   -0.862387    0.000072
 ---------------------------------------------------------------------

 SCF Done:  E(RM062X) =  -491.998378718     A.U. after    1 cycles

 The electronic state is 1-A.
 Alpha  occ. eigenvalues --  -19.66808 -19.66805 -15.00246 -14.80017 -10.62878
 Alpha  occ. eigenvalues --  -10.60234 -10.58157 -10.58154 -10.57216 -10.57214
 Alpha  occ. eigenvalues --   -1.36027  -1.17309  -1.06442  -0.98440  -0.89186
 Alpha  occ. eigenvalues --   -0.87209  -0.78470  -0.72925  -0.68621  -0.64730
 Alpha  occ. eigenvalues --   -0.62664  -0.61718  -0.61637  -0.59108  -0.53536
 Alpha  occ. eigenvalues --   -0.52440  -0.51282  -0.48816  -0.48496  -0.42705
 Alpha  occ. eigenvalues --   -0.40884  -0.38188  -0.37116  -0.36951  -0.33400
 Alpha  occ. eigenvalues --   -0.28209
 Alpha virt. eigenvalues --   -0.04254  -0.02041  -0.00317  -0.00145   0.00472
 Alpha virt. eigenvalues --    0.02370   0.02964   0.03843   0.04689   0.05383
 Alpha virt. eigenvalues --    0.06131   0.07194   0.07402   0.07868   0.08454

 Mulliken charges:
               1
     1  C    0.716839
     2  C    0.925044
     3  C    0.716840
     4  C    0.768696
     5  C    0.379492
     6  C    0.768695
     7  N    0.212934
     8  N    0.656460
     9  O   -0.656122
    10  O   -0.656121
    11  H   -0.855182
    12  H   -0.855182
    13  H   -0.967302
    14  H   -0.967302
    15  H   -0.093894
    16  H   -0.093894
 Sum of Mulliken charges =  -0.00000

 Dipole moment (field-independent basis, Debye):
    X=              7.3305    Y=              0.0000    Z=             -0.0001  Tot=              7.3305
 Quadrupole moment (field-independent basis, Debye-Ang):
   XX=            -56.1577   YY=            -52.5285   ZZ=            -60.8446
   XY=             -0.0000   XZ=              0.0003   YZ=             -0.0002

  Exact polarizability: 149.754   0.000 100.873   0.001  -0.001  54.339
 Approx polarizability: 176.907   0.000 147.098   0.001  -0.002  73.652

 ******    1 imaginary frequencies (negative Signs) ******

                      1                      2                      3
                      A                      A                      A
 Frequencies --   -279.9933                69.1468               111.6589
 Red. masses --      1.2622                 7.7599                 5.5765
 Frc consts  --      0.0583                 0.0219                 0.0410
 IR Inten    --    193.3904                 0.0000                 0.0280

                      4                      5                      6
                      A                      A                      A
 Frequencies --    231.0049               294.2931               369.5869
 Red. masses --      6.3600                 5.3615                 9.4062
 Frc consts  --      0.2000                 0.2736                 0.7570
 IR Inten    --      0.2220                 3.6619                 0.0788

                      7                      8                      9
                      A                      A                      A
 Frequencies --    391.2619               421.2735               429.9310
 Red. masses --      3.0357                 1.0662                 2.5625
 Frc consts  --      0.2738                 0.1115                 0.2791
 IR Inten    --      0.9278                 0.0000                 0.0000

                     10                     11                     12
                      A                      A                      A
 Frequencies --    506.5776               543.9605               641.4011
 Red. masses --      2.5161                 6.9840                 6.8195
 Frc consts  --      0.3804                 1.2176                 1.6530
 IR Inten    --     23.9846                 3.3640                 0.9502

                     13                     14                     15
                      A                      A                      A
 Frequencies --    647.7528               716.0303               796.7275
 Red. masses --      6.7469                 2.7458                 5.3664
 Frc consts  --      1.6679                 0.8294                 2.0070
 IR Inten    --     18.4291                18.6057                20.3826

                     16                     17                     18
                      A                      A                      A
 Frequencies --    827.5085               838.9170               869.6138
 Red. masses --      1.2613                 5.5977                 2.1536
 Frc consts  --      0.5089                 2.3211                 0.9595
 IR Inten    --      0.0000                 0.9119                32.3691

                     19                     20                     21
                      A                      A                      A
 Frequencies --    899.7492               995.1969               997.7134
 Red. masses --      8.9591                 1.4354                 1.3590
 Frc consts  --      4.2732                 0.8376                 0.7971
 IR Inten    --     35.3831                 1.0162                 0.0000

                     22                     23                     24
                      A                      A                      A
 Frequencies --   1021.2066              1037.0671              1128.1084
 Red. masses --      2.5843                 1.3695                 1.1343
 Frc consts  --      1.5879                 0.8678                 0.8505
 IR Inten    --      2.8025                 0.1031                14.4729

                     25                     26                     27
                      A                      A                      A
 Frequencies --   1145.1570              1200.4991              1305.8032
 Red. masses --      1.6606                 1.6558                 1.2963
 Frc consts  --      1.2831                 1.4060                 1.3023
 IR Inten    --    136.9194                 1.1581                 0.1489

                     28                     29                     30
                      A                      A                      A
 Frequencies --   1347.5664              1396.4491              1463.5832
 Red. masses --      3.0607                 8.5235                12.5269
 Frc consts  --      3.2747                 9.7931                15.8099
 IR Inten    --    138.2415                 0.3389               631.2756

                     31                     32                     33
                      A                      A                      A
 Frequencies --   1490.9021              1546.2488              1644.5841
 Red. masses --      3.9502                 2.8750                 1.3158
 Frc consts  --      5.1733                 4.0500                 2.0968
 IR Inten    --      0.4976                46.5308                87.6047

                     34                     35                     36
                      A                      A                      A
 Frequencies --   1656.0807              1686.8922              1716.6981
 Red. masses --      9.3285                 5.9659                11.4692
 Frc consts  --     15.0738                10.0023                19.9146
 IR Inten    --     69.4471               337.8397               269.9294

                     37                     38                     39
                      A                      A                      A
 Frequencies --   3190.8008              3191.5505              3241.8460
 Red. masses --      1.0922                 1.0917                 1.0949
 Frc consts  --      6.5519                 6.5520                 6.7798
 IR Inten    --      4.9359                 8.8638                 4.9420

                     40                     41                     42
                      A                      A                      A
 Frequencies --   3242.0163              3656.9983              3789.6861
 Red. masses --      1.0947                 1.0457                 1.1060
 Frc consts  --      6.7790                 8.2396                 9.3582
 IR Inten    --      1.9799               128.2833                49.1088

 - Thermochemistry -
 -------------------
 Temperature   298.150 Kelvin.  Pressure   1.00000 Atm.
 Atom     1 has atomic number  6 and mass  12.00000

 Molecular mass:   138.04293 amu.
 Principal axes and moments of inertia in atomic units:
                           1         2         3
     Eigenvalues --   457.710512183.468422641.17893
           X            1.00000  -0.00000  -0.00001
           Y            0.00000   1.00000   0.00003
           Z            0.00001  -0.00003   1.00000
 This molecule is an asymmetric top.
 Rotational symmetry number  1.
 Warning -- assumption of classical behavior for rotation
           may cause significant error
 Rotational temperatures (Kelvin)      0.18923     0.03967     0.03279
 Rotational constants (GHZ):           3.94298     0.82655     0.68331
    1 imaginary frequencies ignored.
 Zero-point vibrational energy     315210.3 (Joules/Mol)
                                   75.33707 (Kcal/Mol)
 Warning -- explicit consideration of  10 degrees of freedom as
           vibrations may cause significant error
 Vibrational temperatures:     99.49   160.65   332.36   423.42   531.75
          (Kelvin)            562.94   606.12   618.57   728.85   782.64
                              922.83   931.97  1030.21  1146.31  1190.60
                             1207.01  1251.18  1294.54  1431.86  1435.49
                             1469.29  1492.11  1623.09  1647.62  1727.25
                             1878.76  1938.85  2009.18  2105.77  2145.07
                             2224.70  2366.19  2382.73  2427.06  2469.94
                             4590.84  4591.92  4664.29  4664.53  5261.60
                             5452.51

 Zero-point correction=                           0.120057 (Hartree/Particle)
 Thermal correction to Energy=                    0.127946
 Thermal correction to Enthalpy=                  0.128890
 Thermal correction to Gibbs Free Energy=         0.086915
 Sum of electronic and zero-point Energies=           -491.878321
 Sum of electronic and thermal Energies=              -491.870433
 Sum of electronic and thermal Enthalpies=            -491.869489
 Sum of electronic and thermal Free Energies=         -491.911464

                     E (Thermal)             CV                S
                      KCal/Mol        Cal/Mol-Kelvin    Cal/Mol-Kelvin
 Total                   80.287             30.086             88.344
 Electronic               0.000              0.000              0.000
 Translational            0.889              2.981             40.679
 Rotational               0.889              2.981             29.358
 Vibrational             78.510             24.125             18.307
 Vibration     1          0.598              1.969              4.178
 Vibration     2          0.607              1.940              3.240
 Vibration     3          0.653              1.794              1.871
 Vibration     4          0.689              1.684              1.449
 Vibration     5          0.742              1.535              1.082
 Vibration     6          0.759              1.489              0.995
 Vibration     7          0.784              1.424              0.888
 Vibration     8          0.791              1.405              0.859
 Vibration     9          0.862              1.235              0.642
 Vibration    10          0.899              1.153              0.557

 Optimization completed.
    -- Stationary point found.
 Normal termination of Gaussian 09 at Sun Dec 15 19:10:32 2024.
