 Gaussian 09, Revision E.01,
 Gaussian 09:  ES64L-G09RevE.01 30-Nov-2015

 ----------------------------
 # opt freq m062x/aug-cc-pvdz
 ----------------------------

 ----------
 [No Title]
 ----------
 Symbolic Z-matrix:
 Charge =  1 Multiplicity = 1

 SCF Done:  E(RM062X) =  -492.339676072     A.U. after   16 cycles
 SCF Done:  E(RM062X) =  -492.339749291     A.U. after   14 cycles
 SCF Done:  E(RM062X) =  -492.339751468     A.U. after   12 cycles
 SCF Done:  E(RM062X) =  -492.339755201     A.U. after   12 cycles
 SCF Done:  E(RM062X) =  -492.339756190     A.U. after   11 cycles
 Optimization completed.
    -- Stationary point found.
 Normal termination of Gaussian 09 at Sun Dec 15 19:51:18 2024.

 ----------------------------------------------------------------------
 #N Geom=AllCheck Guess=TCheck SCRF=Check GenChk RM062X/Aug-CC-pVDZ Fre
 q
 ----------------------------------------------------------------------

 Structure from the checkpoint file:  "pvdzPNAyang.chk"
 ----------
 [No Title]
 ----------
 Charge =  1 Multiplicity = 1

                         Standard orientation:
 ---------------------------------------------------------------------
 Center     Atomic      Atomic             Coordinates (Angstroms)
 Number     Number       Type             X           Y           Z
 ---------------------------------------------------------------------
      1          6           0       -0.057295    1.264097   -0.000006
      2          6           0        0.663179    0.036604   -0.000017
      3          6           0       -0.005344   -1.219384   -0.000008
      4          6           0       -1.368465   -1.241863    0.000006
      5          6           0       -2.111070   -0.018155    0.000014
      6          6           0       -1.418947    1.235493    0.000007
      7          7           0       -3.441123   -0.044287    0.000027
      8          7           0        2.026940    0.105707   -0.000030
      9          8           0        2.661234   -1.082884   -0.000000
     10          8           0        2.694969    1.102848   -0.000004
     11          1           0        0.489509    2.204959   -0.000012
     12          1           0        0.564801   -2.144584   -0.000014
     13          1           0       -1.903315   -2.189811    0.000010
     14          1           0       -1.991096    2.161374    0.000012
     15          1           0       -3.983393    0.809064    0.000033
     16          1           0       -3.950187   -0.917765    0.000032
     17          1           0        3.610997   -0.853645    0.000016
 ---------------------------------------------------------------------

 SCF Done:  E(RM062X) =  -492.339756190     A.U. after    1 cycles

 The electronic state is 1-A.
 Alpha  occ. eigenvalues --  -19.91000 -19.87898 -15.19620 -14.97415 -10.80602
 Alpha  occ. eigenvalues --  -10.78327 -10.75277 -10.75080 -10.73336 -10.73330
 Alpha  occ. eigenvalues --   -1.55929  -1.38558  -1.23993  -1.18100  -1.09711
 Alpha  occ. eigenvalues --   -1.04098  -0.97555  -0.91015  -0.88385  -0.83447
 Alpha  occ. eigenvalues --   -0.82422  -0.80998  -0.79043  -0.77965  -0.72852
 Alpha  occ. eigenvalues --   -0.68697  -0.68350  -0.67436  -0.65312  -0.65103
 Alpha  occ. eigenvalues --   -0.61292  -0.58710  -0.57621  -0.57370  -0.50127
 Alpha  occ. eigenvalues --   -0.44723
 Alpha virt. eigenvalues --   -0.25295  -0.15333  -0.12609  -0.12084  -0.11834
 Alpha virt. eigenvalues --   -0.10136  -0.09532  -0.08076  -0.07593  -0.06914
 Alpha virt. eigenvalues --   -0.06057  -0.04806  -0.04527  -0.03760  -0.03577

 Mulliken charges:
               1
     1  C    0.589660
     2  C    1.416049
     3  C    0.606500
     4  C    0.623646
     5  C    0.534479
     6  C    0.713519
     7  N    0.213721
     8  N    0.520406
     9  O   -0.372223
    10  O   -0.538362
    11  H   -0.790399
    12  H   -0.857943
    13  H   -0.910711
    14  H   -0.914845
    15  H   -0.018076
    16  H   -0.021887
    17  H    0.206465
 Sum of Mulliken charges =   1.00000

 Dipole moment (field-independent basis, Debye):
    X=             -3.2919    Y=             -1.0913    Z=              0.0000  Tot=              3.4680
 Quadrupole moment (field-independent basis, Debye-Ang):
   XX=             -8.0788   YY=            -44.0537   ZZ=            -58.8032
   XY=             -4.6327   XZ=             -0.0002   YZ=             -0.0000

  Exact polarizability: 197.263   5.913  89.634  -0.001  -0.001  49.331
 Approx polarizability: 274.495  17.944 123.563  -0.001  -0.000  67.582

                      1                      2                      3
                      A                      A                      A
 Frequencies --     98.8077               112.0314               230.7745
 Red. masses --      4.9596                 7.1138                 5.6448
 Frc consts  --      0.0285                 0.0526                 0.1771
 IR Inten    --      2.9645                 0.0392                 1.0974

                      4                      5                      6
                      A                      A                      A
 Frequencies --    261.4373               372.0069               400.6388
 Red. masses --      4.6167                 8.2669                 3.0092
 Frc consts  --      0.1859                 0.6741                 0.2846
 IR Inten    --      0.0018                 3.4419                 0.2747

                      7                      8                      9
                      A                      A                      A
 Frequencies --    403.1030               475.4685               506.5842
 Red. masses --      2.5304                 1.7283                 1.3091
 Frc consts  --      0.2423                 0.2302                 0.1979
 IR Inten    --      3.0560               125.9876                27.9351

                     10                     11                     12
                      A                      A                      A
 Frequencies --    544.1108               550.3998               577.5168
 Red. masses --      6.0556                 1.2874                 1.0600
 Frc consts  --      1.0563                 0.2298                 0.2083
 IR Inten    --      9.1449               164.9279                 4.7688

                     13                     14                     15
                      A                      A                      A
 Frequencies --    625.7752               631.9078               714.7620
 Red. masses --      6.8024                 6.1085                 3.7482
 Frc consts  --      1.5695                 1.4371                 1.1282
 IR Inten    --      3.4973                43.7815                21.8026

                     16                     17                     18
                      A                      A                      A
 Frequencies --    765.6009               776.3934               822.9708
 Red. masses --      4.8310                 5.1940                 1.2968
 Frc consts  --      1.6684                 1.8447                 0.5175
 IR Inten    --      4.5244                 2.4647                 0.7484

                     19                     20                     21
                      A                      A                      A
 Frequencies --    849.7032               878.7245               998.7365
 Red. masses --      5.6727                 1.9684                 2.7713
 Frc consts  --      2.4131                 0.8955                 1.6287
 IR Inten    --     39.9795                53.4716                 1.8972

                     22                     23                     24
                      A                      A                      A
 Frequencies --   1009.2330              1015.7957              1043.5140
 Red. masses --      1.3654                 1.3707                 1.4328
 Frc consts  --      0.8194                 0.8333                 0.9192
 IR Inten    --      0.1231                 0.0030                 3.7570

                     25                     26                     27
                      A                      A                      A
 Frequencies --   1102.4542              1160.6448              1184.5263
 Red. masses --      4.7655                 1.1412                 1.2138
 Frc consts  --      3.4126                 0.9058                 1.0034
 IR Inten    --    151.9791                24.6307               583.5827

                     28                     29                     30
                      A                      A                      A
 Frequencies --   1284.6327              1327.5476              1399.3191
 Red. masses --      1.8559                 1.3278                 1.9772
 Frc consts  --      1.8045                 1.3788                 2.2810
 IR Inten    --    721.3491                49.2444               199.7256

                     31                     32                     33
                      A                      A                      A
 Frequencies --   1432.6692              1469.8105              1559.9707
 Red. masses --      4.5174                 2.9798                 3.0664
 Frc consts  --      5.4629                 3.7928                 4.3965
 IR Inten    --     18.2561                27.9130               108.1121

                     34                     35                     36
                      A                      A                      A
 Frequencies --   1566.0972              1595.3487              1665.6162
 Red. masses --      3.8015                 6.3869                 4.8236
 Frc consts  --      5.4934                 9.5774                 7.8844
 IR Inten    --     25.8977                36.7520              1049.2133

                     37                     38                     39
                      A                      A                      A
 Frequencies --   1685.5403              1756.9955              3209.1127
 Red. masses --      1.6155                 5.4016                 1.0940
 Frc consts  --      2.7042                 9.8246                 6.6379
 IR Inten    --    638.3969               116.4944                 1.1084

                     40                     41                     42
                      A                      A                      A
 Frequencies --   3221.3282              3234.9790              3254.7690
 Red. masses --      1.0909                 1.0996                 1.0966
 Frc consts  --      6.6699                 6.7802                 6.8446
 IR Inten    --      1.2625                12.9783                11.0210

                     43                     44                     45
                      A                      A                      A
 Frequencies --   3587.3137              3714.6641              3717.9561
 Red. masses --      1.0475                 1.1064                 1.0665
 Frc consts  --      7.9425                 8.9954                 8.6858
 IR Inten    --    427.2673                94.6824               411.0472

 - Thermochemistry -
 -------------------
 Temperature   298.150 Kelvin.  Pressure   1.00000 Atm.
 Atom     1 has atomic number  6 and mass  12.00000

 Molecular mass:   139.05075 amu.
 Principal axes and moments of inertia in atomic units:
                           1         2         3
     Eigenvalues --   476.922822181.741422658.66424
           X            0.99998  -0.00603   0.00001
           Y            0.00603   0.99998   0.00000
           Z           -0.00001  -0.00000   1.00000
 This molecule is an asymmetric top.
 Rotational symmetry number  1.
 Warning -- assumption of classical behavior for rotation
           may cause significant error
 Rotational temperatures (Kelvin)      0.18161     0.03970     0.03258
 Rotational constants (GHZ):           3.78414     0.82720     0.67882
 Zero-point vibrational energy     351685.9 (Joules/Mol)
                                   84.05495 (Kcal/Mol)
 Warning -- explicit consideration of  12 degrees of freedom as
           vibrations may cause significant error
 Vibrational temperatures:    142.16   161.19   332.03   376.15   535.23
          (Kelvin)            576.43   579.97   684.09   728.86   782.85
                              791.90   830.92   900.35   909.17  1028.38
                             1101.53  1117.06  1184.07  1222.53  1264.29
                             1436.96  1452.06  1461.50  1501.38  1586.18
                             1669.91  1704.27  1848.30  1910.04  2013.31
                             2061.29  2114.73  2244.45  2253.26  2295.35
                             2396.45  2425.11  2527.92  4617.19  4634.77
                             4654.41  4682.88  5161.34  5344.57  5349.30

 Zero-point correction=                           0.133950 (Hartree/Particle)
 Thermal correction to Energy=                    0.142212
 Thermal correction to Enthalpy=                  0.143157
 Thermal correction to Gibbs Free Energy=         0.100872
 Sum of electronic and zero-point Energies=           -492.205806
 Sum of electronic and thermal Energies=              -492.197544
 Sum of electronic and thermal Enthalpies=            -492.196600
 Sum of electronic and thermal Free Energies=         -492.238884

                     E (Thermal)             CV                S
                      KCal/Mol        Cal/Mol-Kelvin    Cal/Mol-Kelvin
 Total                   89.240             32.642             88.996
 Electronic               0.000              0.000              0.000
 Translational            0.889              2.981             40.701
 Rotational               0.889              2.981             29.405
 Vibrational             87.462             26.680             18.890
 Vibration     1          0.604              1.950              3.478
 Vibration     2          0.607              1.940              3.233
 Vibration     3          0.652              1.794              1.873
 Vibration     4          0.669              1.743              1.652
 Vibration     5          0.744              1.530              1.072
 Vibration     6          0.766              1.469              0.960
 Vibration     7          0.769              1.463              0.951
 Vibration     8          0.832              1.304              0.722
 Vibration     9          0.862              1.235              0.642
 Vibration    10          0.899              1.153              0.557
 Vibration    11          0.906              1.139              0.543
 Vibration    12          0.934              1.080              0.490

 Optimization completed.
    -- Stationary point found.
 Normal termination of Gaussian 09 at Sun Dec 15 19:53:35 2024.
