 Gaussian 09, Revision E.01,
 Gaussian 09:  ES64L-G09RevE.01 30-Nov-2015

 -----------------------------
 # opt freq m062x/6-311+g(d,p)
 -----------------------------

 ----------
 [No Title]
 ----------
 Symbolic Z-matrix:
 Charge =  1 Multiplicity = 1

 SCF Done:  E(RM062X) =  -688.234302387     A.U. after   15 cycles
 SCF Done:  E(RM062X) =  -688.235196966     A.U. after   12 cycles
 SCF Done:  E(RM062X) =  -688.235273689     A.U. after   11 cycles
 SCF Done:  E(RM062X) =  -688.235289002     A.U. after   11 cycles
 SCF Done:  E(RM062X) =  -688.235296621     A.U. after   11 cycles
 SCF Done:  E(RM062X) =  -688.235304295     A.U. after   11 cycles
 SCF Done:  E(RM062X) =  -688.235306988     A.U. after   11 cycles
 SCF Done:  E(RM062X) =  -688.235307280     A.U. after    9 cycles
 Optimization completed.
    -- Stationary point found.
 Normal termination of Gaussian 09 at Thu Jun  6 14:12:20 2024.

 ----------------------------------------------------------------------
 #N Geom=AllCheck Guess=TCheck SCRF=Check GenChk RM062X/6-311+G(d,p) Fr
 eq
 ----------------------------------------------------------------------

 Structure from the checkpoint file:  "m062x6311FAyang.chk"
 ----------
 [No Title]
 ----------
 Charge =  1 Multiplicity = 1

                         Standard orientation:
 ---------------------------------------------------------------------
 Center     Atomic      Atomic             Coordinates (Angstroms)
 Number     Number       Type             X           Y           Z
 ---------------------------------------------------------------------
      1          6           0        1.472151   -2.023153   -0.018029
      2          6           0        2.506172   -1.081165   -0.008424
      3          6           0        2.220167    0.310702    0.004027
      4          6           0        0.915478    0.732796    0.008298
      5          6           0       -0.143403   -0.217315    0.000340
      6          6           0        0.166160   -1.597026   -0.014177
      7          8           0        3.760156   -1.493924   -0.012386
      8          6           0       -1.470431    0.264040    0.006233
      9          6           0       -2.632368   -0.485816    0.011729
     10          6           0       -3.873329    0.132545   -0.000363
     11          8           0       -4.943804   -0.617991    0.082233
     12          8           0       -3.977254    1.438847   -0.100575
     13          8           0        3.329052    1.078197    0.010335
     14          6           0        3.164980    2.492090    0.023259
     15          1           0        1.734876   -3.073161   -0.029252
     16          1           0        0.678542    1.789650    0.017716
     17          1           0       -0.626089   -2.334569   -0.023876
     18          1           0        4.357782   -0.730544   -0.004991
     19          1           0       -1.588917    1.345424    0.006902
     20          1           0       -2.647652   -1.565791    0.027222
     21          1           0       -5.780760   -0.165493   -0.086488
     22          1           0       -4.853575    1.792679    0.099124
     23          1           0        4.167083    2.910846    0.027034
     24          1           0        2.629959    2.820032   -0.871581
     25          1           0        2.630086    2.803704    0.923971
 ---------------------------------------------------------------------

 SCF Done:  E(RM062X) =  -688.235307280     A.U. after    1 cycles

 The electronic state is 1-A.
 Alpha  occ. eigenvalues --  -19.86582 -19.86413 -19.79552 -19.79328 -10.87997
 Alpha  occ. eigenvalues --  -10.76379 -10.74595 -10.74037 -10.71000 -10.70400
 Alpha  occ. eigenvalues --  -10.70054 -10.69698 -10.69631 -10.68044  -1.45215
 Alpha  occ. eigenvalues --   -1.36822  -1.35390  -1.32159  -1.11929  -1.07870
 Alpha  occ. eigenvalues --   -1.01434  -0.99963  -0.94853  -0.92322  -0.89079
 Alpha  occ. eigenvalues --   -0.87009  -0.83531  -0.80446  -0.78578  -0.76262
 Alpha  occ. eigenvalues --   -0.73844  -0.72887  -0.71827  -0.70136  -0.68677
 Alpha  occ. eigenvalues --   -0.66131  -0.65279  -0.64105  -0.63818  -0.63366
 Alpha  occ. eigenvalues --   -0.62994  -0.61904  -0.59493  -0.59051  -0.57981
 Alpha  occ. eigenvalues --   -0.54839  -0.54329  -0.54324  -0.49905  -0.44200
 Alpha  occ. eigenvalues --   -0.40092
 Alpha virt. eigenvalues --   -0.22192  -0.14421  -0.10819  -0.10613  -0.09583
 Alpha virt. eigenvalues --   -0.08675  -0.08089  -0.07651  -0.06470  -0.06323
 Alpha virt. eigenvalues --   -0.05247  -0.05084  -0.04358  -0.04051  -0.03678

 Mulliken charges:
               1
     1  C   -0.123988
     2  C   -0.493760
     3  C   -0.627314
     4  C    0.543039
     5  C    1.025504
     6  C   -0.501263
     7  O   -0.211675
     8  C    0.096837
     9  C   -0.592891
    10  C    0.209267
    11  O   -0.143131
    12  O   -0.181690
    13  O   -0.201184
    14  C   -0.275572
    15  H    0.194808
    16  H    0.186305
    17  H    0.183272
    18  H    0.322161
    19  H    0.209323
    20  H    0.204335
    21  H    0.301354
    22  H    0.303740
    23  H    0.208698
    24  H    0.182191
    25  H    0.181633
 Sum of Mulliken charges =   1.00000

 Dipole moment (field-independent basis, Debye):
    X=             -8.4626    Y=              3.5921    Z=              0.0725  Tot=              9.1937
 Quadrupole moment (field-independent basis, Debye-Ang):
   XX=              8.7007   YY=            -61.8960   ZZ=            -83.3033
   XY=             -2.8995   XZ=              0.1703   YZ=              0.9951

  Exact polarizability: 307.132 -19.644 130.538  -0.381   0.038  68.521
 Approx polarizability: 353.095 -33.127 166.857  -0.711  -0.225  91.595

                      1                      2                      3
                      A                      A                      A
 Frequencies --     50.1647                61.3531                90.0433
 Red. masses --      6.4118                 5.6904                 5.2325
 Frc consts  --      0.0095                 0.0126                 0.0250
 IR Inten    --      0.4000                 1.2805                 0.9316

                      4                      5                      6
                      A                      A                      A
 Frequencies --     93.6188               147.2011               181.3230
 Red. masses --      3.3466                 5.3024                 2.6007
 Frc consts  --      0.0173                 0.0677                 0.0504
 IR Inten    --      5.2481                 2.2368                12.1661

                      7                      8                      9
                      A                      A                      A
 Frequencies --    207.3788               233.5315               244.4916
 Red. masses --      3.8109                 6.5630                 1.2922
 Frc consts  --      0.0966                 0.2109                 0.0455
 IR Inten    --     13.4767                 9.3593                19.4982

                     10                     11                     12
                      A                      A                      A
 Frequencies --    286.2003               319.1955               331.7992
 Red. masses --      1.4117                 5.7128                 2.8794
 Frc consts  --      0.0681                 0.3429                 0.1868
 IR Inten    --     97.5705                 0.2356                24.1425

                     13                     14                     15
                      A                      A                      A
 Frequencies --    366.9694               376.7958               454.3254
 Red. masses --      4.7060                 1.9676                 1.1641
 Frc consts  --      0.3734                 0.1646                 0.1416
 IR Inten    --     12.7158                35.1985               269.1604

                     16                     17                     18
                      A                      A                      A
 Frequencies --    464.1332               502.3277               533.1202
 Red. masses --      3.2847                 5.6477                 5.5053
 Frc consts  --      0.4169                 0.8397                 0.9219
 IR Inten    --      0.8861                20.0189                19.0141

                     19                     20                     21
                      A                      A                      A
 Frequencies --    566.7760               573.6738               587.7065
 Red. masses --      1.1884                 4.9615                 3.1114
 Frc consts  --      0.2249                 0.9620                 0.6332
 IR Inten    --    134.6699                54.0535                 3.4637

                     22                     23                     24
                      A                      A                      A
 Frequencies --    591.1651               640.5373               716.3623
 Red. masses --      3.4707                 4.3982                 5.0725
 Frc consts  --      0.7146                 1.0632                 1.5337
 IR Inten    --      2.8172                 7.2754                 3.1087

                     25                     26                     27
                      A                      A                      A
 Frequencies --    737.4752               787.9120               839.2019
 Red. masses --      5.7404                 5.5347                 5.2622
 Frc consts  --      1.8394                 2.0244                 2.1835
 IR Inten    --      0.4307                16.7678                 1.9755

                     28                     29                     30
                      A                      A                      A
 Frequencies --    841.1467               871.5645               886.3982
 Red. masses --      1.5603                 1.5850                 1.3570
 Frc consts  --      0.6504                 0.7094                 0.6282
 IR Inten    --     11.1462                61.2606                15.8113

                     31                     32                     33
                      A                      A                      A
 Frequencies --    972.5178               978.5041              1012.4446
 Red. masses --      3.3007                 1.3033                 4.4868
 Frc consts  --      1.8393                 0.7353                 2.7097
 IR Inten    --     78.2568                 2.2371               130.6666

                     34                     35                     36
                      A                      A                      A
 Frequencies --   1016.5609              1076.6157              1153.6293
 Red. masses --      1.3701                 3.9360                 1.2696
 Frc consts  --      0.8342                 2.6880                 0.9955
 IR Inten    --     20.9150                45.3719               344.9027

                     37                     38                     39
                      A                      A                      A
 Frequencies --   1155.7192              1177.1886              1188.2522
 Red. masses --      1.3061                 1.5664                 1.2727
 Frc consts  --      1.0279                 1.2789                 1.0587
 IR Inten    --    206.4937              2041.6496                 0.8196

                     40                     41                     42
                      A                      A                      A
 Frequencies --   1209.7443              1234.6677              1243.3008
 Red. masses --      1.4500                 1.3068                 1.4610
 Frc consts  --      1.2503                 1.1737                 1.3306
 IR Inten    --     23.2974                75.6439                39.9519

                     43                     44                     45
                      A                      A                      A
 Frequencies --   1287.3447              1309.8648              1347.0109
 Red. masses --      1.9796                 1.8993                 1.6601
 Frc consts  --      1.9329                 1.9200                 1.7747
 IR Inten    --     29.0220               143.6397               154.1447

                     46                     47                     48
                      A                      A                      A
 Frequencies --   1350.5365              1382.6276              1437.2631
 Red. masses --      1.9587                 3.9596                 3.1194
 Frc consts  --      2.1049                 4.4598                 3.7966
 IR Inten    --    256.1715               498.2753               372.0420

                     49                     50                     51
                      A                      A                      A
 Frequencies --   1482.7822              1494.9680              1506.6071
 Red. masses --      2.3320                 1.6926                 1.0411
 Frc consts  --      3.0209                 2.2287                 1.3923
 IR Inten    --    155.7732               167.9278                15.9412

                     52                     53                     54
                      A                      A                      A
 Frequencies --   1513.6198              1520.9633              1574.8091
 Red. masses --      1.2479                 3.2944                 4.0463
 Frc consts  --      1.6845                 4.4902                 5.9124
 IR Inten    --    114.0650               219.3803              1483.0810

                     55                     56                     57
                      A                      A                      A
 Frequencies --   1619.3966              1635.3415              1645.0168
 Red. masses --      4.2903                 4.5295                 5.4844
 Frc consts  --      6.6289                 7.1370                 8.7441
 IR Inten    --   1333.6711                31.0317               342.4466

                     58                     59                     60
                      A                      A                      A
 Frequencies --   1694.5010              3054.5401              3133.8751
 Red. masses --      6.0142                 1.0323                 1.1079
 Frc consts  --     10.1746                 5.6750                 6.4107
 IR Inten    --    235.6950                17.5045                13.2107

                     61                     62                     63
                      A                      A                      A
 Frequencies --   3180.7399              3185.7787              3201.7959
 Red. masses --      1.0906                 1.1042                 1.0912
 Frc consts  --      6.5008                 6.6027                 6.5911
 IR Inten    --      0.5235                 2.5607                 0.1602

                     64                     65                     66
                      A                      A                      A
 Frequencies --   3217.8248              3233.5165              3241.9214
 Red. masses --      1.0917                 1.0955                 1.0917
 Frc consts  --      6.6599                 6.7485                 6.7599
 IR Inten    --      2.2584                 2.5571                 6.5837

                     67                     68                     69
                      A                      A                      A
 Frequencies --   3789.1874              3836.8649              3848.3206
 Red. masses --      1.0651                 1.0681                 1.0664
 Frc consts  --      9.0102                 9.2642                 9.3048
 IR Inten    --    418.6075                58.6735               829.6855

 - Thermochemistry -
 -------------------
 Temperature   298.150 Kelvin.  Pressure   1.00000 Atm.
 Atom     1 has atomic number  6 and mass  12.00000

 Molecular mass:   195.06573 amu.
 Principal axes and moments of inertia in atomic units:
                           1         2         3
     Eigenvalues --  1165.138476254.588817405.89527
           X            0.99994   0.01068   0.00009
           Y           -0.01068   0.99994   0.00170
           Z           -0.00008  -0.00171   1.00000
 This molecule is an asymmetric top.
 Rotational symmetry number  1.
 Warning -- assumption of classical behavior for rotation
           may cause significant error
 Rotational temperatures (Kelvin)      0.07434     0.01385     0.01170
 Rotational constants (GHZ):           1.54895     0.28855     0.24369
 Zero-point vibrational energy     524742.3 (Joules/Mol)
                                  125.41641 (Kcal/Mol)
 Warning -- explicit consideration of  22 degrees of freedom as
           vibrations may cause significant error
 Vibrational temperatures:     72.18    88.27   129.55   134.70   211.79
          (Kelvin)            260.88   298.37   336.00   351.77   411.78
                              459.25   477.38   527.99   542.12   653.67
                              667.78   722.74   767.04   815.46   825.39
                              845.58   850.55   921.59  1030.68  1061.06
                             1133.63  1207.42  1210.22  1253.99  1275.33
                             1399.23  1407.85  1456.68  1462.60  1549.01
                             1659.81  1662.82  1693.71  1709.63  1740.55
                             1776.41  1788.83  1852.20  1884.60  1938.05
                             1943.12  1989.29  2067.90  2133.39  2150.92
                             2167.67  2177.76  2188.32  2265.80  2329.95
                             2352.89  2366.81  2438.01  4394.80  4508.94
                             4576.37  4583.62  4606.66  4629.73  4652.30
                             4664.40  5451.79  5520.39  5536.87

 Zero-point correction=                           0.199864 (Hartree/Particle)
 Thermal correction to Energy=                    0.213219
 Thermal correction to Enthalpy=                  0.214163
 Thermal correction to Gibbs Free Energy=         0.159546
 Sum of electronic and zero-point Energies=           -688.035444
 Sum of electronic and thermal Energies=              -688.022089
 Sum of electronic and thermal Enthalpies=            -688.021144
 Sum of electronic and thermal Free Energies=         -688.075762

                     E (Thermal)             CV                S
                      KCal/Mol        Cal/Mol-Kelvin    Cal/Mol-Kelvin
 Total                  133.797             50.462            114.952
 Electronic               0.000              0.000              0.000
 Translational            0.889              2.981             41.710
 Rotational               0.889              2.981             32.357
 Vibrational            132.019             44.500             40.885
 Vibration     1          0.595              1.978              4.811
 Vibration     2          0.597              1.973              4.413
 Vibration     3          0.602              1.956              3.659
 Vibration     4          0.603              1.954              3.583
 Vibration     5          0.617              1.906              2.708
 Vibration     6          0.630              1.865              2.315
 Vibration     7          0.641              1.829              2.067
 Vibration     8          0.654              1.790              1.852
 Vibration     9          0.660              1.772              1.770
 Vibration    10          0.684              1.699              1.496
 Vibration    11          0.705              1.637              1.314
 Vibration    12          0.714              1.612              1.251
 Vibration    13          0.740              1.540              1.092
 Vibration    14          0.747              1.520              1.052
 Vibration    15          0.813              1.351              0.783
 Vibration    16          0.822              1.330              0.754
 Vibration    17          0.858              1.245              0.652
 Vibration    18          0.888              1.177              0.580
 Vibration    19          0.923              1.103              0.510
 Vibration    20          0.930              1.088              0.497
 Vibration    21          0.945              1.058              0.471
 Vibration    22          0.949              1.051              0.465

 Optimization completed.
    -- Stationary point found.
 Normal termination of Gaussian 09 at Thu Jun  6 14:21:28 2024.
