 Gaussian 09, Revision E.01,
 Gaussian 09:  ES64L-G09RevE.01 30-Nov-2015

 -----------------------------
 # opt freq m062x/6-311+g(d,p)
 -----------------------------

 ----------
 [No Title]
 ----------
 Symbolic Z-matrix:
 Charge =  0 Multiplicity = 1

 SCF Done:  E(RM062X) =  -687.885192329     A.U. after   15 cycles
 SCF Done:  E(RM062X) =  -687.886300129     A.U. after   12 cycles
 SCF Done:  E(RM062X) =  -687.886406122     A.U. after   12 cycles
 SCF Done:  E(RM062X) =  -687.886420973     A.U. after   12 cycles
 SCF Done:  E(RM062X) =  -687.886420658     A.U. after   10 cycles
 SCF Done:  E(RM062X) =  -687.886421518     A.U. after   10 cycles
 Optimization completed.
    -- Stationary point found.
 Normal termination of Gaussian 09 at Thu Jun  6 13:55:53 2024.

 ----------------------------------------------------------------------
 #N Geom=AllCheck Guess=TCheck SCRF=Check GenChk RM062X/6-311+G(d,p) Fr
 eq
 ----------------------------------------------------------------------

 Structure from the checkpoint file:  "m062x6311FA.chk"
 ----------
 [No Title]
 ----------
 Charge =  0 Multiplicity = 1

                         Standard orientation:
 ---------------------------------------------------------------------
 Center     Atomic      Atomic             Coordinates (Angstroms)
 Number     Number       Type             X           Y           Z
 ---------------------------------------------------------------------
      1          6           0        1.456155   -2.006199   -0.000179
      2          6           0        2.485774   -1.077731   -0.000126
      3          6           0        2.184781    0.293726   -0.000067
      4          6           0        0.866699    0.713954   -0.000055
      5          6           0       -0.179886   -0.223330   -0.000106
      6          6           0        0.134293   -1.583344   -0.000168
      7          8           0        3.770488   -1.490201   -0.000132
      8          6           0       -1.557118    0.278535   -0.000078
      9          6           0       -2.679371   -0.448770   -0.000101
     10          8           0        3.284739    1.099162   -0.000027
     11          6           0        3.076703    2.498674    0.000269
     12          6           0       -4.070222    0.074069   -0.000082
     13          8           0       -5.018016   -0.657815    0.001192
     14          8           0       -4.258601    1.413434   -0.000401
     15          1           0        1.711769   -3.058517   -0.000221
     16          1           0        0.631476    1.771395   -0.000004
     17          1           0       -0.652896   -2.326323   -0.000203
     18          1           0        4.339413   -0.710283   -0.000063
     19          1           0       -1.616095    1.366922    0.000011
     20          1           0       -2.654007   -1.531364    0.000001
     21          1           0        4.064644    2.952768    0.000392
     22          1           0        2.530145    2.809835   -0.894823
     23          1           0        2.530093    2.809449    0.895461
     24          1           0       -3.420261    1.881987   -0.001450
 ---------------------------------------------------------------------

 SCF Done:  E(RM062X) =  -687.886421518     A.U. after    1 cycles

 The electronic state is 1-A.
 Alpha  occ. eigenvalues --  -19.68879 -19.67079 -19.67002 -19.61078 -10.68020
 Alpha  occ. eigenvalues --  -10.62861 -10.62703 -10.61913 -10.58998 -10.57643
 Alpha  occ. eigenvalues --  -10.57338 -10.56857 -10.56509 -10.56147  -1.23577
 Alpha  occ. eigenvalues --   -1.23570  -1.20111  -1.14761  -0.99202  -0.92701
 Alpha  occ. eigenvalues --   -0.88042  -0.86423  -0.81985  -0.76262  -0.72117
 Alpha  occ. eigenvalues --   -0.71231  -0.68493  -0.66399  -0.63269  -0.60812
 Alpha  occ. eigenvalues --   -0.59309  -0.58404  -0.55857  -0.54176  -0.53621
 Alpha  occ. eigenvalues --   -0.53248  -0.52183  -0.51592  -0.50848  -0.47632
 Alpha  occ. eigenvalues --   -0.47410  -0.45613  -0.45447  -0.44156  -0.43377
 Alpha  occ. eigenvalues --   -0.42775  -0.39966  -0.36690  -0.35845  -0.32084
 Alpha  occ. eigenvalues --   -0.27802
 Alpha virt. eigenvalues --   -0.04774  -0.01055   0.00101   0.00335   0.01381
 Alpha virt. eigenvalues --    0.01792   0.02772   0.03513   0.04228   0.04345
 Alpha virt. eigenvalues --    0.05545   0.05667   0.06082   0.07210   0.07259

 Mulliken charges:
               1
     1  C   -0.267398
     2  C   -0.520602
     3  C   -0.802759
     4  C    0.537478
     5  C    1.138651
     6  C   -0.434556
     7  O   -0.274019
     8  C   -0.158841
     9  C    0.041936
    10  O   -0.205674
    11  C   -0.279022
    12  C   -0.152649
    13  O   -0.281416
    14  O   -0.206128
    15  H    0.169572
    16  H    0.159923
    17  H    0.167466
    18  H    0.297124
    19  H    0.126063
    20  H    0.179895
    21  H    0.186993
    22  H    0.170098
    23  H    0.170097
    24  H    0.237769
 Sum of Mulliken charges =  -0.00000

 Dipole moment (field-independent basis, Debye):
    X=              6.2723    Y=              3.7743    Z=             -0.0033  Tot=              7.3203
 Quadrupole moment (field-independent basis, Debye-Ang):
   XX=           -114.8391   YY=            -70.7707   ZZ=            -85.2729
   XY=              5.9565   XZ=              0.0189   YZ=             -0.0008

  Exact polarizability: 217.930   6.339 134.785  -0.009  -0.005  72.182
 Approx polarizability: 243.202  10.155 173.308  -0.014  -0.010  95.712

 ******    2 imaginary frequencies (negative Signs) ******

                      1                      2                      3
                      A                      A                      A
 Frequencies --   -161.8175               -21.1593                69.8181
 Red. masses --      1.6869                 4.8168                 5.8367
 Frc consts  --      0.0260                 0.0013                 0.0168
 IR Inten    --     31.2960                 4.3021                 3.9423

                      4                      5                      6
                      A                      A                      A
 Frequencies --     80.7975                89.9640               165.6846
 Red. masses --      3.4745                 6.1788                 5.2162
 Frc consts  --      0.0134                 0.0295                 0.0844
 IR Inten    --      1.8957                 3.6751                 0.7586

                      7                      8                      9
                      A                      A                      A
 Frequencies --    214.7645               224.8194               240.5346
 Red. masses --      4.0995                 2.2144                 7.4326
 Frc consts  --      0.1114                 0.0659                 0.2534
 IR Inten    --      4.3308                 0.0199                 6.5730

                     10                     11                     12
                      A                      A                      A
 Frequencies --    297.8509               314.6339               315.4985
 Red. masses --      1.4545                 1.5880                 6.2414
 Frc consts  --      0.0760                 0.0926                 0.3660
 IR Inten    --      4.5119                54.3222                 6.6820

                     13                     14                     15
                      A                      A                      A
 Frequencies --    372.0632               374.2178               428.4681
 Red. masses --      3.4118                 4.6594                 1.1104
 Frc consts  --      0.2783                 0.3844                 0.1201
 IR Inten    --     14.4096                 4.0630               117.5050

                     16                     17                     18
                      A                      A                      A
 Frequencies --    464.5233               492.5803               532.4114
 Red. masses --      3.0065                 5.1827                 5.9851
 Frc consts  --      0.3822                 0.7409                 0.9996
 IR Inten    --      0.9776                 0.5942                 2.2430

                     19                     20                     21
                      A                      A                      A
 Frequencies --    581.1484               586.0671               590.1164
 Red. masses --      4.1177                 3.6624                 7.2824
 Frc consts  --      0.8194                 0.7412                 1.4942
 IR Inten    --      8.5014                13.7310                28.2336

                     22                     23                     24
                      A                      A                      A
 Frequencies --    666.1431               717.7112               736.7173
 Red. masses --      5.6307                 4.7460                 4.7483
 Frc consts  --      1.4721                 1.4404                 1.5184
 IR Inten    --      5.5379                 0.0968                 0.1481

                     25                     26                     27
                      A                      A                      A
 Frequencies --    785.1206               832.3412               837.7473
 Red. masses --      5.7207                 5.3475                 1.4970
 Frc consts  --      2.0776                 2.1827                 0.6190
 IR Inten    --      8.2572                15.5924                24.4017

                     28                     29                     30
                      A                      A                      A
 Frequencies --    862.3061               892.7288               933.9385
 Red. masses --      1.6019                 2.0016                 5.2422
 Frc consts  --      0.7018                 0.9398                 2.6940
 IR Inten    --     28.4888                 0.2693                35.2622

                     31                     32                     33
                      A                      A                      A
 Frequencies --    962.9588               973.0632               997.5498
 Red. masses --      1.3178                 3.4669                 1.1133
 Frc consts  --      0.7200                 1.9341                 0.6527
 IR Inten    --      9.4524                 7.7439                46.0965

                     34                     35                     36
                      A                      A                      A
 Frequencies --   1092.3535              1156.1179              1189.3547
 Red. masses --      3.5731                 1.4177                 1.2764
 Frc consts  --      2.5120                 1.1164                 1.0638
 IR Inten    --     26.7619                35.3091                 0.6850

                     37                     38                     39
                      A                      A                      A
 Frequencies --   1196.1590              1208.3428              1228.2224
 Red. masses --      1.5573                 1.7542                 1.6532
 Frc consts  --      1.3128                 1.5091                 1.4694
 IR Inten    --     41.3217                28.9077               135.6298

                     40                     41                     42
                      A                      A                      A
 Frequencies --   1241.4296              1272.4043              1311.6542
 Red. masses --      1.3484                 2.4976                 1.7935
 Frc consts  --      1.2243                 2.3824                 1.8180
 IR Inten    --     71.8518                74.6783                68.5178

                     43                     44                     45
                      A                      A                      A
 Frequencies --   1315.8774              1333.9263              1356.4027
 Red. masses --      2.0645                 2.3518                 4.0191
 Frc consts  --      2.1061                 2.4655                 4.3567
 IR Inten    --    104.3240               554.2973               244.8920

                     46                     47                     48
                      A                      A                      A
 Frequencies --   1377.8076              1422.5923              1478.9532
 Red. masses --      1.4092                 2.4295                 2.2537
 Frc consts  --      1.5762                 2.8968                 2.9044
 IR Inten    --     37.8172                86.7186                 9.5923

                     49                     50                     51
                      A                      A                      A
 Frequencies --   1500.2516              1507.5945              1522.6208
 Red. masses --      1.5337                 1.0405                 1.0821
 Frc consts  --      2.0338                 1.3934                 1.4781
 IR Inten    --     19.0489                12.0791                46.8845

                     52                     53                     54
                      A                      A                      A
 Frequencies --   1579.1076              1667.7597              1686.1692
 Red. masses --      3.8565                 6.2718                 6.7521
 Frc consts  --      5.6658                10.2781                11.3107
 IR Inten    --    312.4622               158.3863                36.4538

                     55                     56                     57
                      A                      A                      A
 Frequencies --   1727.7035              1873.4339              3046.2365
 Red. masses --      5.8255                10.4025                 1.0318
 Frc consts  --     10.2453                21.5113                 5.6412
 IR Inten    --     60.9570               590.7248                32.8962

                     58                     59                     60
                      A                      A                      A
 Frequencies --   3119.6808              3123.9481              3163.2063
 Red. masses --      1.1067                 1.0887                 1.1042
 Frc consts  --      6.3463                 6.2601                 6.5094
 IR Inten    --     21.4057                25.5216                10.3959

                     61                     62                     63
                      A                      A                      A
 Frequencies --   3192.6334              3209.1004              3211.9849
 Red. masses --      1.0908                 1.0905                 1.0900
 Frc consts  --      6.5505                 6.6167                 6.6255
 IR Inten    --      2.3589                 2.5241                 2.2446

                     64                     65                     66
                      A                      A                      A
 Frequencies --   3222.7826              3854.4490              3927.6911
 Red. masses --      1.0946                 1.0652                 1.0654
 Frc consts  --      6.6986                 9.3238                 9.6839
 IR Inten    --      1.7851               180.2523                37.6649

 - Thermochemistry -
 -------------------
 Temperature   298.150 Kelvin.  Pressure   1.00000 Atm.
 Atom     1 has atomic number  6 and mass  12.00000

 Molecular mass:   194.05791 amu.
 Principal axes and moments of inertia in atomic units:
                           1         2         3
     Eigenvalues --  1158.624016293.240217440.32878
           X            0.99994   0.01115   0.00003
           Y           -0.01115   0.99994   0.00000
           Z           -0.00003  -0.00000   1.00000
 This molecule is an asymmetric top.
 Rotational symmetry number  1.
 Warning -- assumption of classical behavior for rotation
           may cause significant error
 Rotational temperatures (Kelvin)      0.07476     0.01376     0.01164
 Rotational constants (GHZ):           1.55766     0.28677     0.24256
    2 imaginary frequencies ignored.
 Zero-point vibrational energy     490183.2 (Joules/Mol)
                                  117.15661 (Kcal/Mol)
 Warning -- explicit consideration of  19 degrees of freedom as
           vibrations may cause significant error
 Vibrational temperatures:    100.45   116.25   129.44   238.38   309.00
          (Kelvin)            323.46   346.08   428.54   452.69   453.93
                              535.32   538.42   616.47   668.34   708.71
                              766.02   836.14   843.22   849.04   958.43
                             1032.63  1059.97  1129.61  1197.55  1205.33
                             1240.66  1284.44  1343.73  1385.48  1400.02
                             1435.25  1571.65  1663.39  1711.21  1721.00
                             1738.53  1767.14  1786.14  1830.70  1887.18
                             1893.25  1919.22  1951.56  1982.36  2046.79
                             2127.88  2158.52  2169.09  2190.71  2271.98
                             2399.53  2426.02  2485.78  2695.45  4382.85
                             4488.52  4494.66  4551.14  4593.48  4617.17
                             4621.32  4636.86  5545.69  5651.06

 Zero-point correction=                           0.186701 (Hartree/Particle)
 Thermal correction to Energy=                    0.198460
 Thermal correction to Enthalpy=                  0.199404
 Thermal correction to Gibbs Free Energy=         0.148447
 Sum of electronic and zero-point Energies=           -687.699721
 Sum of electronic and thermal Energies=              -687.687961
 Sum of electronic and thermal Enthalpies=            -687.687017
 Sum of electronic and thermal Free Energies=         -687.737975

                     E (Thermal)             CV                S
                      KCal/Mol        Cal/Mol-Kelvin    Cal/Mol-Kelvin
 Total                  124.536             45.473            107.250
 Electronic               0.000              0.000              0.000
 Translational            0.889              2.981             41.694
 Rotational               0.889              2.981             32.362
 Vibrational            122.758             39.511             33.194
 Vibration     1          0.598              1.969              4.158
 Vibration     2          0.600              1.962              3.871
 Vibration     3          0.602              1.956              3.661
 Vibration     4          0.624              1.885              2.484
 Vibration     5          0.645              1.818              2.003
 Vibration     6          0.649              1.803              1.920
 Vibration     7          0.658              1.778              1.799
 Vibration     8          0.691              1.678              1.429
 Vibration     9          0.702              1.646              1.338
 Vibration    10          0.703              1.644              1.333
 Vibration    11          0.744              1.530              1.071
 Vibration    12          0.745              1.525              1.062
 Vibration    13          0.790              1.408              0.864
 Vibration    14          0.822              1.329              0.753
 Vibration    15          0.848              1.266              0.677
 Vibration    16          0.887              1.178              0.582
 Vibration    17          0.938              1.072              0.483
 Vibration    18          0.943              1.062              0.474
 Vibration    19          0.947              1.053              0.467

 Normal termination of Gaussian 09 at Thu Jun  6 14:05:13 2024.
