 Gaussian 09, Revision E.01,
 Gaussian 09:  ES64L-G09RevE.01 30-Nov-2015

 ---------------------------
 # opt freq apfd/6-31+g(d,p)
 ---------------------------

 ----------
 [No Title]
 ----------
 Symbolic Z-matrix:
 Charge =  1 Multiplicity = 1

 SCF Done:  E(RAPFD) =  -476.196445536     A.U. after   15 cycles
 SCF Done:  E(RAPFD) =  -476.196378160     A.U. after   13 cycles
 SCF Done:  E(RAPFD) =  -476.196621929     A.U. after    9 cycles
 SCF Done:  E(RAPFD) =  -476.196575771     A.U. after   12 cycles
 SCF Done:  E(RAPFD) =  -476.196697180     A.U. after    7 cycles
 SCF Done:  E(RAPFD) =  -476.196706980     A.U. after   10 cycles
 SCF Done:  E(RAPFD) =  -476.196709345     A.U. after   10 cycles
 SCF Done:  E(RAPFD) =  -476.196709574     A.U. after   10 cycles
 SCF Done:  E(RAPFD) =  -476.196709526     A.U. after   10 cycles
 SCF Done:  E(RAPFD) =  -476.196709906     A.U. after    9 cycles
 Optimization completed.
    -- Stationary point found.
 Normal termination of Gaussian 09 at Sat Jun 22 16:58:46 2024.

 ----------------------------------------------------------------------
 #N Geom=AllCheck Guess=TCheck SCRF=Check GenChk RAPFD/6-31+G(d,p) Freq
 ----------------------------------------------------------------------

 Structure from the checkpoint file:  "APFDAnthranilicyang.chk"
 ----------
 [No Title]
 ----------
 Charge =  1 Multiplicity = 1

                         Standard orientation:
 ---------------------------------------------------------------------
 Center     Atomic      Atomic             Coordinates (Angstroms)
 Number     Number       Type             X           Y           Z
 ---------------------------------------------------------------------
      1          6           0        1.937119   -1.468069    0.000045
      2          6           0        2.615715   -0.250091    0.000048
      3          6           0        1.905202    0.952773    0.000034
      4          6           0        0.522344    0.910739    0.000017
      5          6           0       -0.185623   -0.301772   -0.000009
      6          6           0        0.545113   -1.495317    0.000017
      7          6           0       -1.667335   -0.303673   -0.000110
      8          8           0       -2.208617   -1.504105    0.000059
      9          7           0       -0.245882    2.166683    0.000046
     10          8           0       -2.339615    0.732119   -0.000182
     11          1           0        2.493703   -2.400151    0.000056
     12          1           0        3.701406   -0.228585    0.000069
     13          1           0        2.432779    1.903705    0.000053
     14          1           0        0.011651   -2.440034   -0.000001
     15          1           0       -3.177519   -1.424071    0.000041
     16          1           0       -0.054514    2.735312   -0.828659
     17          1           0       -1.281226    1.860095    0.000106
     18          1           0       -0.054463    2.735298    0.828749
 ---------------------------------------------------------------------

 SCF Done:  E(RAPFD) =  -476.196709906     A.U. after    1 cycles

 The electronic state is 1-A.
 Alpha  occ. eigenvalues --  -19.41767 -19.37289 -14.65882 -10.53377 -10.45735
 Alpha  occ. eigenvalues --  -10.41681 -10.40141 -10.39504 -10.39379 -10.38505
 Alpha  occ. eigenvalues --   -1.31487  -1.22775  -1.19208  -1.05532  -0.96532
 Alpha  occ. eigenvalues --   -0.94091  -0.85585  -0.82234  -0.79285  -0.76629
 Alpha  occ. eigenvalues --   -0.74997  -0.72353  -0.69482  -0.67976  -0.64328
 Alpha  occ. eigenvalues --   -0.63737  -0.62417  -0.61649  -0.57897  -0.55477
 Alpha  occ. eigenvalues --   -0.54781  -0.53366  -0.51041  -0.47772  -0.44325
 Alpha  occ. eigenvalues --   -0.44126
 Alpha virt. eigenvalues --   -0.22707  -0.18738  -0.15671  -0.11998  -0.11105
 Alpha virt. eigenvalues --   -0.10314  -0.08939  -0.08354  -0.07189  -0.06283
 Alpha virt. eigenvalues --   -0.05291  -0.05033  -0.04087  -0.03049  -0.03024

 Mulliken charges:
               1
     1  C   -0.027976
     2  C   -0.470379
     3  C    0.665067
     4  C   -1.427250
     5  C    1.317000
     6  C   -0.802417
     7  C    0.732053
     8  O   -0.419319
     9  N   -0.637265
    10  O   -0.468130
    11  H    0.208860
    12  H    0.209678
    13  H    0.194944
    14  H    0.220862
    15  H    0.422629
    16  H    0.414412
    17  H    0.452820
    18  H    0.414412
 Sum of Mulliken charges =   1.00000

 Dipole moment (field-independent basis, Debye):
    X=              1.0472    Y=              4.1373    Z=              0.0004  Tot=              4.2678
 Quadrupole moment (field-independent basis, Debye-Ang):
   XX=            -35.5625   YY=            -28.5099   ZZ=            -56.3882
   XY=              3.6696   XZ=             -0.0003   YZ=              0.0009

  Exact polarizability: 115.947  -0.545 100.753   0.002  -0.001  47.799
 Approx polarizability: 175.597  -1.956 163.693   0.003  -0.002  69.785

                      1                      2                      3
                      A                      A                      A
 Frequencies --     89.5201               130.9357               230.8825
 Red. masses --      6.0913                 3.7107                 3.2144
 Frc consts  --      0.0288                 0.0375                 0.1010
 IR Inten    --      6.4262                 1.5437                20.5155

                      4                      5                      6
                      A                      A                      A
 Frequencies --    280.2599               344.7423               380.4589
 Red. masses --      5.2260                 1.1890                 3.8592
 Frc consts  --      0.2418                 0.0833                 0.3291
 IR Inten    --     10.2119                 0.1352                72.8038

                      7                      8                      9
                      A                      A                      A
 Frequencies --    417.4187               422.1837               489.7113
 Red. masses --      9.0079                 3.0231                 3.1250
 Frc consts  --      0.9247                 0.3175                 0.4416
 IR Inten    --      2.5133                 9.8457                 5.8181

                     10                     11                     12
                      A                      A                      A
 Frequencies --    504.1645               568.0778               626.6031
 Red. masses --      4.4823                 6.1630                 1.2872
 Frc consts  --      0.6713                 1.1718                 0.2978
 IR Inten    --      2.7599                 5.1161                71.4078

                     13                     14                     15
                      A                      A                      A
 Frequencies --    653.6537               703.1599               761.1674
 Red. masses --      5.5041                 3.0151                 3.9542
 Frc consts  --      1.3856                 0.8783                 1.3498
 IR Inten    --     76.4564                41.3405                58.8036

                     16                     17                     18
                      A                      A                      A
 Frequencies --    763.8486               812.6005               837.9589
 Red. masses --      1.5871                 2.6514                 5.2706
 Frc consts  --      0.5456                 1.0315                 2.1805
 IR Inten    --    101.4280                 0.6691                15.2656

                     19                     20                     21
                      A                      A                      A
 Frequencies --    901.9468               996.1291              1034.2922
 Red. masses --      1.3568                 1.3692                 1.3529
 Frc consts  --      0.6503                 0.8005                 0.8527
 IR Inten    --      0.0359                 0.5373                 0.0002

                     22                     23                     24
                      A                      A                      A
 Frequencies --   1068.5290              1087.8799              1127.7591
 Red. masses --      2.4683                 2.2132                 2.1236
 Frc consts  --      1.6604                 1.5432                 1.5913
 IR Inten    --     12.0080                15.3922                69.3052

                     25                     26                     27
                      A                      A                      A
 Frequencies --   1128.4753              1182.4718              1211.2184
 Red. masses --      1.3182                 1.6243                 1.1451
 Frc consts  --      0.9890                 1.3381                 0.9897
 IR Inten    --      8.9096                 0.2084                33.1367

                     28                     29                     30
                      A                      A                      A
 Frequencies --   1214.5527              1223.3577              1324.5369
 Red. masses --      1.7299                 2.1953                 1.4820
 Frc consts  --      1.5035                 1.9358                 1.5319
 IR Inten    --    174.9000                20.0107                 2.8860

                     31                     32                     33
                      A                      A                      A
 Frequencies --   1395.4608              1446.5079              1489.4530
 Red. masses --      5.6987                 2.1634                 1.9203
 Frc consts  --      6.5383                 2.6670                 2.5099
 IR Inten    --     26.8332               314.4904               189.4807

                     34                     35                     36
                      A                      A                      A
 Frequencies --   1499.6231              1543.8423              1615.8644
 Red. masses --      2.1632                 2.6700                 1.3229
 Frc consts  --      2.8662                 3.7494                 2.0351
 IR Inten    --     93.0856                89.4416                21.3311

                     37                     38                     39
                      A                      A                      A
 Frequencies --   1650.5489              1673.8963              1687.3600
 Red. masses --      3.8446                 1.0429                 4.4060
 Frc consts  --      6.1711                 1.7217                 7.3911
 IR Inten    --      7.9785                39.3330                63.4452

                     40                     41                     42
                      A                      A                      A
 Frequencies --   1755.1474              2584.6626              3211.6083
 Red. masses --      4.7688                 1.0990                 1.0919
 Frc consts  --      8.6553                 4.3258                 6.6353
 IR Inten    --    251.1602               712.8069                 0.5286

                     43                     44                     45
                      A                      A                      A
 Frequencies --   3231.4934              3242.3222              3251.9687
 Red. masses --      1.0907                 1.0950                 1.0966
 Frc consts  --      6.7105                 6.7822                 6.8328
 IR Inten    --      0.0999                 1.7169                 3.5622

                     46                     47                     48
                      A                      A                      A
 Frequencies --   3467.4441              3537.1105              3776.3390
 Red. masses --      1.0523                 1.0946                 1.0652
 Frc consts  --      7.4544                 8.0685                 8.9498
 IR Inten    --    101.6370               105.2232               228.2066

 - Thermochemistry -
 -------------------
 Temperature   298.150 Kelvin.  Pressure   1.00000 Atm.
 Atom     1 has atomic number  6 and mass  12.00000

 Molecular mass:   138.05550 amu.
 Principal axes and moments of inertia in atomic units:
                           1         2         3
     Eigenvalues --   801.494551488.668832280.27690
           X            1.00000  -0.00152  -0.00003
           Y            0.00152   1.00000   0.00001
           Z            0.00003  -0.00001   1.00000
 This molecule is an asymmetric top.
 Rotational symmetry number  1.
 Warning -- assumption of classical behavior for rotation
           may cause significant error
 Rotational temperatures (Kelvin)      0.10807     0.05818     0.03798
 Rotational constants (GHZ):           2.25172     1.21232     0.79146
 Zero-point vibrational energy     386269.1 (Joules/Mol)
                                   92.32053 (Kcal/Mol)
 Warning -- explicit consideration of  11 degrees of freedom as
           vibrations may cause significant error
 Vibrational temperatures:    128.80   188.39   332.19   403.23   496.01
          (Kelvin)            547.39   600.57   607.43   704.58   725.38
                              817.34   901.54   940.46  1011.69  1095.15
                             1099.01  1169.15  1205.63  1297.70  1433.21
                             1488.11  1537.37  1565.21  1622.59  1623.62
                             1701.31  1742.67  1747.47  1760.14  1905.71
                             2007.75  2081.20  2142.99  2157.62  2221.24
                             2324.87  2374.77  2408.36  2427.73  2525.26
                             3718.75  4620.78  4649.39  4664.97  4678.85
                             4988.87  5089.11  5433.30

 Zero-point correction=                           0.147122 (Hartree/Particle)
 Thermal correction to Energy=                    0.155305
 Thermal correction to Enthalpy=                  0.156249
 Thermal correction to Gibbs Free Energy=         0.114104
 Sum of electronic and zero-point Energies=           -476.049588
 Sum of electronic and thermal Energies=              -476.041405
 Sum of electronic and thermal Enthalpies=            -476.040461
 Sum of electronic and thermal Free Energies=         -476.082606

                     E (Thermal)             CV                S
                      KCal/Mol        Cal/Mol-Kelvin    Cal/Mol-Kelvin
 Total                   97.455             32.166             88.701
 Electronic               0.000              0.000              0.000
 Translational            0.889              2.981             40.679
 Rotational               0.889              2.981             29.388
 Vibrational             95.678             26.205             18.633
 Vibration     1          0.602              1.957              3.671
 Vibration     2          0.612              1.922              2.932
 Vibration     3          0.653              1.794              1.872
 Vibration     4          0.680              1.710              1.532
 Vibration     5          0.723              1.586              1.190
 Vibration     6          0.750              1.512              1.037
 Vibration     7          0.780              1.432              0.901
 Vibration     8          0.785              1.422              0.885
 Vibration     9          0.846              1.273              0.684
 Vibration    10          0.859              1.241              0.648
 Vibration    11          0.924              1.100              0.508

 Optimization completed.
    -- Stationary point found.
 Normal termination of Gaussian 09 at Sat Jun 22 16:59:57 2024.
