 Gaussian 09, Revision E.01,
 Gaussian 09:  ES64L-G09RevE.01 30-Nov-2015

 ---------------------------
 # opt freq apfd/6-31+g(d,p)
 ---------------------------

 ----------
 [No Title]
 ----------
 Symbolic Z-matrix:
 Charge =  0 Multiplicity = 1

 SCF Done:  E(RAPFD) =  -475.841561191     A.U. after   15 cycles
 SCF Done:  E(RAPFD) =  -475.841696811     A.U. after   12 cycles
 SCF Done:  E(RAPFD) =  -475.841741925     A.U. after   12 cycles
 SCF Done:  E(RAPFD) =  -475.841763459     A.U. after   11 cycles
 SCF Done:  E(RAPFD) =  -475.841766312     A.U. after   11 cycles
 SCF Done:  E(RAPFD) =  -475.841772140     A.U. after   10 cycles
 Optimization completed.
    -- Stationary point found.
 Normal termination of Gaussian 09 at Sat Jun 22 16:58:43 2024.

 ----------------------------------------------------------------------
 #N Geom=AllCheck Guess=TCheck SCRF=Check GenChk RAPFD/6-31+G(d,p) Freq
 ----------------------------------------------------------------------

 Structure from the checkpoint file:  "APFDAnthranilic.chk"
 ----------
 [No Title]
 ----------
 Charge =  0 Multiplicity = 1

                         Standard orientation:
 ---------------------------------------------------------------------
 Center     Atomic      Atomic             Coordinates (Angstroms)
 Number     Number       Type             X           Y           Z
 ---------------------------------------------------------------------
      1          6           0       -1.859829   -1.514918    0.000013
      2          6           0       -2.583155   -0.311735    0.000012
      3          6           0       -1.934925    0.908941    0.000010
      4          6           0       -0.523153    0.986952    0.000008
      5          6           0        0.211382   -0.232819    0.000015
      6          6           0       -0.477922   -1.460327    0.000015
      7          6           0        1.674224   -0.206239    0.000012
      8          8           0        2.244375   -1.432909    0.000025
      9          7           0        0.089256    2.196644    0.000016
     10          8           0        2.373026    0.803214   -0.000096
     11          1           0       -2.374939   -2.470395    0.000011
     12          1           0       -3.670454   -0.333432    0.000011
     13          1           0       -2.509750    1.832497    0.000008
     14          1           0        0.105537   -2.375116    0.000017
     15          1           0        3.201209   -1.284226   -0.000035
     16          1           0        1.100343    2.231954   -0.000047
     17          1           0       -0.455676    3.040645   -0.000027
 ---------------------------------------------------------------------

 SCF Done:  E(RAPFD) =  -475.841772140     A.U. after    1 cycles

 The electronic state is 1-A.
 Alpha  occ. eigenvalues --  -19.24768 -19.19194 -14.38859 -10.35228 -10.27904
 Alpha  occ. eigenvalues --  -10.23117 -10.23103 -10.22811 -10.22148 -10.21407
 Alpha  occ. eigenvalues --   -1.13612  -1.04092  -0.95579  -0.86845  -0.79166
 Alpha  occ. eigenvalues --   -0.75507  -0.68020  -0.63978  -0.61064  -0.55172
 Alpha  occ. eigenvalues --   -0.53869  -0.52252  -0.50559  -0.46972  -0.46907
 Alpha  occ. eigenvalues --   -0.45121  -0.44155  -0.41541  -0.40375  -0.38350
 Alpha  occ. eigenvalues --   -0.36463  -0.34056  -0.33065  -0.29632  -0.27405
 Alpha  occ. eigenvalues --   -0.22102
 Alpha virt. eigenvalues --   -0.05100  -0.00002   0.00834   0.01810   0.02651
 Alpha virt. eigenvalues --    0.04155   0.04808   0.05459   0.06212   0.06380
 Alpha virt. eigenvalues --    0.07838   0.08250   0.09101   0.10315   0.10946

 Mulliken charges:
               1
     1  C   -0.071411
     2  C   -0.545867
     3  C    0.586342
     4  C   -1.301513
     5  C    1.200134
     6  C   -0.723630
     7  C    0.757444
     8  O   -0.472571
     9  N   -0.616122
    10  O   -0.522639
    11  H    0.156903
    12  H    0.158326
    13  H    0.140348
    14  H    0.180682
    15  H    0.389590
    16  H    0.364688
    17  H    0.319296
 Sum of Mulliken charges =  -0.00000

 Dipole moment (field-independent basis, Debye):
    X=             -1.1055    Y=              0.5366    Z=             -0.0001  Tot=              1.2288
 Quadrupole moment (field-independent basis, Debye-Ang):
   XX=            -51.6573   YY=            -49.8352   ZZ=            -62.2406
   XY=             -5.3613   XZ=              0.0001   YZ=             -0.0001

  Exact polarizability: 126.595   4.141 113.986   0.000  -0.000  52.778
 Approx polarizability: 187.243  11.498 187.069  -0.001  -0.001  74.907

 ******    1 imaginary frequencies (negative Signs) ******

                      1                      2                      3
                      A                      A                      A
 Frequencies --    -10.8628                93.2587               189.7430
 Red. masses --      3.4504                 4.5931                 1.5174
 Frc consts  --      0.0002                 0.0235                 0.0322
 IR Inten    --     72.3977                17.2955                92.0387

                      4                      5                      6
                      A                      A                      A
 Frequencies --    236.2486               263.6504               376.8652
 Red. masses --      4.2665                 5.8659                 5.7129
 Frc consts  --      0.1403                 0.2402                 0.4781
 IR Inten    --      6.1795                 1.1728                 7.5779

                      7                      8                      9
                      A                      A                      A
 Frequencies --    402.5163               426.6460               512.9982
 Red. masses --      5.7349                 3.0135                 4.0144
 Frc consts  --      0.5474                 0.3232                 0.6224
 IR Inten    --      2.4339                 6.3394                 4.4133

                     10                     11                     12
                      A                      A                      A
 Frequencies --    537.8497               567.3038               579.0573
 Red. masses --      2.8604                 6.7624                 1.1941
 Frc consts  --      0.4875                 1.2823                 0.2359
 IR Inten    --     13.3189                 1.1111                95.4379

                     13                     14                     15
                      A                      A                      A
 Frequencies --    634.7422               644.5079               717.3822
 Red. masses --      1.0382                 5.4361                 3.2059
 Frc consts  --      0.2464                 1.3304                 0.9721
 IR Inten    --     24.4812                47.7255                41.5233

                     16                     17                     18
                      A                      A                      A
 Frequencies --    758.4325               764.8273               808.8132
 Red. masses --      4.1225                 1.4801                 3.5743
 Frc consts  --      1.3972                 0.5101                 1.3776
 IR Inten    --     19.5955                64.5769                 2.6965

                     19                     20                     21
                      A                      A                      A
 Frequencies --    861.6383               869.1754               973.3489
 Red. masses --      1.7105                 5.3510                 1.3590
 Frc consts  --      0.7482                 2.3818                 0.7586
 IR Inten    --      3.5610                 6.2547                 0.6644

                     22                     23                     24
                      A                      A                      A
 Frequencies --    993.6871              1045.8039              1084.9435
 Red. masses --      1.3031                 2.0963                 1.8982
 Frc consts  --      0.7581                 1.3509                 1.3165
 IR Inten    --      0.0120                 3.2325                11.6881

                     25                     26                     27
                      A                      A                      A
 Frequencies --   1096.9703              1184.6236              1195.3569
 Red. masses --      3.7640                 1.3442                 1.2843
 Frc consts  --      2.6686                 1.1114                 1.0813
 IR Inten    --     85.5667                28.4436               222.4485

                     28                     29                     30
                      A                      A                      A
 Frequencies --   1210.5344              1317.4744              1355.3999
 Red. masses --      1.3872                 1.7036                 2.1022
 Frc consts  --      1.1977                 1.7422                 2.2754
 IR Inten    --    150.4395                 3.3128                50.2461

                     31                     32                     33
                      A                      A                      A
 Frequencies --   1389.0870              1425.5995              1495.9316
 Red. masses --      3.1817                 5.8553                 2.5877
 Frc consts  --      3.6172                 7.0112                 3.4119
 IR Inten    --    130.2313                46.4287                 5.1250

                     34                     35                     36
                      A                      A                      A
 Frequencies --   1530.8899              1609.2330              1640.3874
 Red. masses --      2.2453                 2.3608                 2.7850
 Frc consts  --      3.1003                 3.6020                 4.4153
 IR Inten    --     36.3901               125.5018               184.8084

                     37                     38                     39
                      A                      A                      A
 Frequencies --   1683.1388              1769.3247              3190.3978
 Red. masses --      4.4773                 7.3253                 1.0870
 Frc consts  --      7.4731                13.5110                 6.5191
 IR Inten    --    132.5285               439.5206                 7.3219

                     40                     41                     42
                      A                      A                      A
 Frequencies --   3208.2764              3225.2119              3242.6217
 Red. masses --      1.0924                 1.0916                 1.0955
 Frc consts  --      6.6250                 6.6903                 6.7865
 IR Inten    --     14.5809                 6.6201                 4.8033

                     43                     44                     45
                      A                      A                      A
 Frequencies --   3572.1184              3761.2509              3821.1358
 Red. masses --      1.0523                 1.0995                 1.0646
 Frc consts  --      7.9111                 9.1647                 9.1587
 IR Inten    --    119.4178                82.4764               108.8051

 - Thermochemistry -
 -------------------
 Temperature   298.150 Kelvin.  Pressure   1.00000 Atm.
 Atom     1 has atomic number  6 and mass  12.00000

 Molecular mass:   137.04768 amu.
 Principal axes and moments of inertia in atomic units:
                           1         2         3
     Eigenvalues --   782.475911480.882462263.35836
           X            0.99999  -0.00420   0.00001
           Y            0.00420   0.99999   0.00001
           Z           -0.00001  -0.00001   1.00000
 This molecule is an asymmetric top.
 Rotational symmetry number  1.
 Warning -- assumption of classical behavior for rotation
           may cause significant error
 Rotational temperatures (Kelvin)      0.11069     0.05849     0.03827
 Rotational constants (GHZ):           2.30645     1.21869     0.79737
    1 imaginary frequencies ignored.
 Zero-point vibrational energy     348522.4 (Joules/Mol)
                                   83.29886 (Kcal/Mol)
 Warning -- explicit consideration of  11 degrees of freedom as
           vibrations may cause significant error
 Vibrational temperatures:    134.18   273.00   339.91   379.33   542.22
          (Kelvin)            579.13   613.85   738.09   773.84   816.22
                              833.13   913.25   927.30  1032.15  1091.21
                             1100.41  1163.70  1239.70  1250.55  1400.43
                             1429.69  1504.68  1560.99  1578.29  1704.41
                             1719.85  1741.69  1895.55  1950.12  1998.58
                             2051.12  2152.31  2202.61  2315.32  2360.15
                             2421.66  2545.66  4590.27  4615.99  4640.35
                             4665.40  5139.48  5411.59  5497.76

 Zero-point correction=                           0.132745 (Hartree/Particle)
 Thermal correction to Energy=                    0.140592
 Thermal correction to Enthalpy=                  0.141536
 Thermal correction to Gibbs Free Energy=         0.100158
 Sum of electronic and zero-point Energies=           -475.709027
 Sum of electronic and thermal Energies=              -475.701180
 Sum of electronic and thermal Enthalpies=            -475.700236
 Sum of electronic and thermal Free Energies=         -475.741614

                     E (Thermal)             CV                S
                      KCal/Mol        Cal/Mol-Kelvin    Cal/Mol-Kelvin
 Total                   88.223             31.213             87.088
 Electronic               0.000              0.000              0.000
 Translational            0.889              2.981             40.657
 Rotational               0.889              2.981             29.352
 Vibrational             86.445             25.251             17.079
 Vibration     1          0.602              1.954              3.591
 Vibration     2          0.633              1.854              2.230
 Vibration     3          0.655              1.785              1.831
 Vibration     4          0.670              1.740              1.637
 Vibration     5          0.747              1.519              1.052
 Vibration     6          0.768              1.465              0.953
 Vibration     7          0.788              1.412              0.870
 Vibration     8          0.868              1.221              0.626
 Vibration     9          0.893              1.166              0.570
 Vibration    10          0.923              1.102              0.509
 Vibration    11          0.936              1.077              0.487

 Optimization completed.
    -- Stationary point found.
 Normal termination of Gaussian 09 at Sat Jun 22 16:59:58 2024.
