 Gaussian 09, Revision E.01,
 Gaussian 09:  ES64L-G09RevE.01 30-Nov-2015

 -----------------------------
 # opt freq B2PLYP/6-31+g(d,p)
 -----------------------------

 ----------
 [No Title]
 ----------
 Symbolic Z-matrix:
 Charge =  1 Multiplicity = 1

 SCF Done:  E(RB2PLYP) =  -475.625670540     A.U. after   16 cycles
 E2(B2PLYP) =    -0.4832987050D+00 E(B2PLYP) =    -0.47610896924452D+03
 SCF Done:  E(RB2PLYP) =  -475.624799854     A.U. after   13 cycles
 E2(B2PLYP) =    -0.4843585517D+00 E(B2PLYP) =    -0.47610915840617D+03
 SCF Done:  E(RB2PLYP) =  -475.624519807     A.U. after   13 cycles
 E2(B2PLYP) =    -0.4847917271D+00 E(B2PLYP) =    -0.47610931153445D+03
 SCF Done:  E(RB2PLYP) =  -475.625101916     A.U. after   12 cycles
 E2(B2PLYP) =    -0.4843668632D+00 E(B2PLYP) =    -0.47610946877949D+03
 SCF Done:  E(RB2PLYP) =  -475.625151043     A.U. after   11 cycles
 E2(B2PLYP) =    -0.4843187937D+00 E(B2PLYP) =    -0.47610946983620D+03
 SCF Done:  E(RB2PLYP) =  -475.625189341     A.U. after   11 cycles
 E2(B2PLYP) =    -0.4842796491D+00 E(B2PLYP) =    -0.47610946899001D+03
 SCF Done:  E(RB2PLYP) =  -475.625157603     A.U. after   10 cycles
 E2(B2PLYP) =    -0.4843129975D+00 E(B2PLYP) =    -0.47610947060100D+03
 SCF Done:  E(RB2PLYP) =  -475.625154256     A.U. after    9 cycles
 E2(B2PLYP) =    -0.4843164467D+00 E(B2PLYP) =    -0.47610947070229D+03
 Optimization completed.
    -- Stationary point found.
 Normal termination of Gaussian 09 at Sun Dec 15 22:40:04 2024.

 ----------------------------------------------------------------------
 #N Geom=AllCheck Guess=TCheck SCRF=Check GenChk RB2PLYP(FC)/6-31+G(d,p
 ) Freq
 ----------------------------------------------------------------------

 Structure from the checkpoint file:  "B2PLYPAnthranilicyang.chk"
 ----------
 [No Title]
 ----------
 Charge =  1 Multiplicity = 1

                         Standard orientation:
 ---------------------------------------------------------------------
 Center     Atomic      Atomic             Coordinates (Angstroms)
 Number     Number       Type             X           Y           Z
 ---------------------------------------------------------------------
      1          6           0        1.931593   -1.480609    0.000097
      2          6           0        2.620768   -0.265887    0.000064
      3          6           0        1.916522    0.942864    0.000027
      4          6           0        0.530025    0.909380    0.000022
      5          6           0       -0.190186   -0.299145   -0.000008
      6          6           0        0.536799   -1.499042    0.000058
      7          6           0       -1.675996   -0.297073   -0.000206
      8          8           0       -2.219930   -1.505689    0.000197
      9          7           0       -0.224822    2.184816    0.000129
     10          8           0       -2.353533    0.738805   -0.000477
     11          1           0        2.479614   -2.414123    0.000129
     12          1           0        3.703368   -0.251515    0.000090
     13          1           0        2.448832    1.887843    0.000047
     14          1           0        0.000114   -2.438218    0.000039
     15          1           0       -3.190364   -1.419112    0.000139
     16          1           0       -0.021581    2.750041   -0.828230
     17          1           0       -1.254319    1.913497    0.000348
     18          1           0       -0.021351    2.750021    0.828445
 ---------------------------------------------------------------------

 SCF Done:  E(RB2PLYP) =  -475.625154256     A.U. after    1 cycles
 E2(B2PLYP) =    -0.4843164475D+00 E(B2PLYP) =    -0.47610947070311D+03
 E2(B2PLYP) =    -0.4843164475D+00 E(B2PLYP) =    -0.47610947070311D+03

 The electronic state is 1-A.
 Alpha  occ. eigenvalues --  -19.96631 -19.92022 -15.14948 -10.95921 -10.87550
 Alpha  occ. eigenvalues --  -10.83158 -10.81657 -10.81048 -10.80915 -10.79908
 Alpha  occ. eigenvalues --   -1.43518  -1.34343  -1.30766  -1.16061  -1.06269
 Alpha  occ. eigenvalues --   -1.03742  -0.93699  -0.90104  -0.86787  -0.83588
 Alpha  occ. eigenvalues --   -0.82138  -0.78977  -0.76457  -0.75098  -0.70309
 Alpha  occ. eigenvalues --   -0.70082  -0.68964  -0.68137  -0.64336  -0.60822
 Alpha  occ. eigenvalues --   -0.60249  -0.59228  -0.56268  -0.53576  -0.47143
 Alpha  occ. eigenvalues --   -0.46935
 Alpha virt. eigenvalues --   -0.17403  -0.13535  -0.13256  -0.08387  -0.08029
 Alpha virt. eigenvalues --   -0.06677  -0.06132  -0.05406  -0.05230  -0.04487
 Alpha virt. eigenvalues --   -0.02877  -0.02786  -0.01781  -0.01339  -0.00218

 Mulliken charges:
               1
     1  C   -0.047164
     2  C   -0.379293
     3  C    0.596760
     4  C   -1.168184
     5  C    0.995773
     6  C   -0.656900
     7  C    0.820813
     8  O   -0.480205
     9  N   -0.641359
    10  O   -0.539217
    11  H    0.196923
    12  H    0.198066
    13  H    0.183666
    14  H    0.213359
    15  H    0.426502
    16  H    0.407908
    17  H    0.464649
    18  H    0.407905
 Sum of Mulliken charges =   1.00000

 Dipole moment (field-independent basis, Debye):
    X=              1.4287    Y=              4.3857    Z=              0.0011  Tot=              4.6125
 Quadrupole moment (field-independent basis, Debye-Ang):
   XX=            -37.0455   YY=            -28.6789   ZZ=            -56.9821
   XY=              3.7144   XZ=             -0.0016   YZ=              0.0026

  Exact polarizability: 116.109  -0.802 101.541   0.003  -0.003  48.782
 Approx polarizability: 133.954  -1.515 127.063   0.003  -0.004  62.380

                      1                      2                      3
                      A                      A                      A
 Frequencies --     78.5195               124.9260               223.5777
 Red. masses --      5.9258                 3.6911                 3.1645
 Frc consts  --      0.0215                 0.0339                 0.0932
 IR Inten    --      6.2946                 1.7638                19.2092

                      4                      5                      6
                      A                      A                      A
 Frequencies --    271.0357               310.1885               368.4180
 Red. masses --      5.2581                 1.2098                 3.8737
 Frc consts  --      0.2276                 0.0686                 0.3098
 IR Inten    --      9.7068                 0.8584                60.6706

                      7                      8                      9
                      A                      A                      A
 Frequencies --    408.5016               427.7675               469.1394
 Red. masses --      3.1676                 8.0901                 3.4091
 Frc consts  --      0.3114                 0.8722                 0.4421
 IR Inten    --      8.9538                 2.9130                 6.6210

                     10                     11                     12
                      A                      A                      A
 Frequencies --    500.1788               564.4685               594.1681
 Red. masses --      4.6207                 6.2808                 2.5805
 Frc consts  --      0.6811                 1.1791                 0.5368
 IR Inten    --      4.7106                 2.5089                19.7389

                     13                     14                     15
                      A                      A                      A
 Frequencies --    636.4321               658.2708               744.6512
 Red. masses --      1.5651                 5.4083                 2.5453
 Frc consts  --      0.3735                 1.3808                 0.8316
 IR Inten    --     72.6567                76.5171               108.8026

                     16                     17                     18
                      A                      A                      A
 Frequencies --    749.5605               789.2971               832.3297
 Red. masses --      4.1536                 1.7009                 5.3355
 Frc consts  --      1.3749                 0.6243                 2.1778
 IR Inten    --     42.3155                11.9721                11.7732

                     19                     20                     21
                      A                      A                      A
 Frequencies --    879.3985               972.7833               994.7163
 Red. masses --      1.2469                 1.3354                 1.2550
 Frc consts  --      0.5681                 0.7446                 0.7316
 IR Inten    --      0.0404                 0.3907                 0.0386

                     22                     23                     24
                      A                      A                      A
 Frequencies --   1063.2339              1081.7452              1120.5620
 Red. masses --      2.3604                 2.2971                 1.2930
 Frc consts  --      1.5722                 1.5837                 0.9566
 IR Inten    --      8.9162                11.8605                 8.3022

                     25                     26                     27
                      A                      A                      A
 Frequencies --   1127.2292              1184.3741              1205.1670
 Red. masses --      2.2731                 1.6608                 2.2817
 Frc consts  --      1.7017                 1.3726                 1.9526
 IR Inten    --    101.6583                11.8273                79.3867

                     28                     29                     30
                      A                      A                      A
 Frequencies --   1210.5695              1221.0197              1332.0909
 Red. masses --      1.1454                 1.7636                 1.5383
 Frc consts  --      0.9889                 1.5491                 1.6083
 IR Inten    --     36.6970                78.2732                 2.3364

                     31                     32                     33
                      A                      A                      A
 Frequencies --   1398.2280              1438.6818              1496.6983
 Red. masses --      5.8928                 2.9358                 1.9852
 Frc consts  --      6.7878                 3.5802                 2.6201
 IR Inten    --     22.9595               230.6190                71.8076

                     34                     35                     36
                      A                      A                      A
 Frequencies --   1510.7155              1543.1574              1624.5620
 Red. masses --      1.5219                 2.4829                 2.2880
 Frc consts  --      2.0464                 3.4835                 3.5578
 IR Inten    --    231.9970                74.2529                15.0218

                     37                     38                     39
                      A                      A                      A
 Frequencies --   1646.5197              1681.7067              1692.0709
 Red. masses --      2.2484                 2.8488                 1.0449
 Frc consts  --      3.5914                 4.7469                 1.7626
 IR Inten    --     35.3061                43.2487                39.0089

                     40                     41                     42
                      A                      A                      A
 Frequencies --   1734.7231              2784.1761              3226.7434
 Red. masses --      4.2156                 1.0857                 1.0921
 Frc consts  --      7.4744                 4.9587                 6.6997
 IR Inten    --    226.1539               616.8409                 0.5802

                     43                     44                     45
                      A                      A                      A
 Frequencies --   3249.5388              3260.2431              3269.9981
 Red. masses --      1.0906                 1.0952                 1.0961
 Frc consts  --      6.7853                 6.8589                 6.9053
 IR Inten    --      0.1216                 0.9349                 3.1775

                     46                     47                     48
                      A                      A                      A
 Frequencies --   3464.8156              3533.3288              3746.8657
 Red. masses --      1.0532                 1.0941                 1.0652
 Frc consts  --      7.4497                 8.0481                 8.8105
 IR Inten    --    105.5492               103.9120               218.5750

 - Thermochemistry -
 -------------------
 Temperature   298.150 Kelvin.  Pressure   1.00000 Atm.
 Atom     1 has atomic number  6 and mass  12.00000

 Molecular mass:   138.05550 amu.
 Principal axes and moments of inertia in atomic units:
                           1         2         3
     Eigenvalues --   808.818341498.204942297.14551
           X            1.00000  -0.00100  -0.00005
           Y            0.00100   1.00000   0.00003
           Z            0.00005  -0.00003   1.00000
 This molecule is an asymmetric top.
 Rotational symmetry number  1.
 Warning -- assumption of classical behavior for rotation
           may cause significant error
 Rotational temperatures (Kelvin)      0.10709     0.05781     0.03770
 Rotational constants (GHZ):           2.23133     1.20460     0.78565
 Zero-point vibrational energy     385479.2 (Joules/Mol)
                                   92.13174 (Kcal/Mol)
 Warning -- explicit consideration of  12 degrees of freedom as
           vibrations may cause significant error
 Vibrational temperatures:    112.97   179.74   321.68   389.96   446.29
          (Kelvin)            530.07   587.74   615.46   674.99   719.64
                              812.14   854.87   915.68   947.10  1071.39
                             1078.45  1135.62  1197.54  1265.26  1399.62
                             1431.17  1529.75  1556.39  1612.24  1621.83
                             1704.05  1733.96  1741.74  1756.77  1916.58
                             2011.74  2069.94  2153.41  2173.58  2220.26
                             2337.38  2368.97  2419.60  2434.51  2495.88
                             4005.80  4642.56  4675.36  4690.76  4704.79
                             4985.09  5083.67  5390.90

 Zero-point correction=                           0.146821 (Hartree/Particle)
 Thermal correction to Energy=                    0.155216
 Thermal correction to Enthalpy=                  0.156160
 Thermal correction to Gibbs Free Energy=         0.113530
 Sum of electronic and zero-point Energies=           -475.962649
 Sum of electronic and thermal Energies=              -475.954255
 Sum of electronic and thermal Enthalpies=            -475.953311
 Sum of electronic and thermal Free Energies=         -475.995941

                     E (Thermal)             CV                S
                      KCal/Mol        Cal/Mol-Kelvin    Cal/Mol-Kelvin
 Total                   97.399             32.779             89.722
 Electronic               0.000              0.000              0.000
 Translational            0.889              2.981             40.679
 Rotational               0.889              2.981             29.411
 Vibrational             95.622             26.817             19.632
 Vibration     1          0.600              1.964              3.928
 Vibration     2          0.610              1.928              3.023
 Vibration     3          0.649              1.805              1.930
 Vibration     4          0.675              1.727              1.590
 Vibration     5          0.699              1.654              1.361
 Vibration     6          0.741              1.537              1.086
 Vibration     7          0.773              1.452              0.932
 Vibration     8          0.789              1.410              0.866
 Vibration     9          0.826              1.319              0.740
 Vibration    10          0.856              1.250              0.658
 Vibration    11          0.920              1.108              0.515
 Vibration    12          0.952              1.044              0.460

 Optimization completed.
    -- Stationary point found.
 Normal termination of Gaussian 09 at Sun Dec 15 22:50:22 2024.
