 Gaussian 09, Revision E.01,
 Gaussian 09:  ES64L-G09RevE.01 30-Nov-2015

 -----------------------------
 # opt freq B2PLYP/6-31+g(d,p)
 -----------------------------

 ----------
 [No Title]
 ----------
 Symbolic Z-matrix:
 Charge =  0 Multiplicity = 1

 SCF Done:  E(RB2PLYP) =  -475.271763843     A.U. after   15 cycles
 E2(B2PLYP) =    -0.4842259188D+00 E(B2PLYP) =    -0.47575598976209D+03
 SCF Done:  E(RB2PLYP) =  -475.270973225     A.U. after   12 cycles
 E2(B2PLYP) =    -0.4854205294D+00 E(B2PLYP) =    -0.47575639375423D+03
 SCF Done:  E(RB2PLYP) =  -475.270915087     A.U. after   11 cycles
 E2(B2PLYP) =    -0.4854978655D+00 E(B2PLYP) =    -0.47575641295273D+03
 SCF Done:  E(RB2PLYP) =  -475.270860274     A.U. after   11 cycles
 E2(B2PLYP) =    -0.4855560069D+00 E(B2PLYP) =    -0.47575641628041D+03
 SCF Done:  E(RB2PLYP) =  -475.270909121     A.U. after   10 cycles
 E2(B2PLYP) =    -0.4855097622D+00 E(B2PLYP) =    -0.47575641888348D+03
 SCF Done:  E(RB2PLYP) =  -475.270913442     A.U. after    9 cycles
 E2(B2PLYP) =    -0.4855054763D+00 E(B2PLYP) =    -0.47575641891837D+03
 Optimization completed.
    -- Stationary point found.
 Normal termination of Gaussian 09 at Sun Dec 15 21:46:41 2024.

 ----------------------------------------------------------------------
 #N Geom=AllCheck Guess=TCheck SCRF=Check GenChk RB2PLYP(FC)/6-31+G(d,p
 ) Freq
 ----------------------------------------------------------------------

 Structure from the checkpoint file:  "B2PLYPAnthranilic.chk"
 ----------
 [No Title]
 ----------
 Charge =  0 Multiplicity = 1

                         Standard orientation:
 ---------------------------------------------------------------------
 Center     Atomic      Atomic             Coordinates (Angstroms)
 Number     Number       Type             X           Y           Z
 ---------------------------------------------------------------------
      1          6           0       -1.858403   -1.522093   -0.000018
      2          6           0       -2.588190   -0.321014    0.000146
      3          6           0       -1.941082    0.903412    0.000140
      4          6           0       -0.528016    0.986631   -0.000039
      5          6           0        0.212641   -0.230867   -0.000218
      6          6           0       -0.473930   -1.463853   -0.000185
      7          6           0        1.678482   -0.202596   -0.000418
      8          8           0        2.254272   -1.435448    0.000199
      9          7           0        0.076253    2.208966   -0.000052
     10          8           0        2.381752    0.808610    0.000222
     11          1           0       -2.367951   -2.477283   -0.000012
     12          1           0       -3.672289   -0.345661    0.000284
     13          1           0       -2.516200    1.823507    0.000269
     14          1           0        0.109831   -2.374627   -0.000309
     15          1           0        3.212379   -1.280377    0.000567
     16          1           0        1.084090    2.263796   -0.000264
     17          1           0       -0.480837    3.044874    0.000012
 ---------------------------------------------------------------------

 SCF Done:  E(RB2PLYP) =  -475.270913442     A.U. after    1 cycles
 E2(B2PLYP) =    -0.4855054787D+00 E(B2PLYP) =    -0.47575641892073D+03
 E2(B2PLYP) =    -0.4855054787D+00 E(B2PLYP) =    -0.47575641892073D+03

 The electronic state is 1-A.
 Alpha  occ. eigenvalues --  -19.80095 -19.74371 -14.86796 -10.78107 -10.69946
 Alpha  occ. eigenvalues --  -10.64940 -10.64670 -10.64501 -10.63524 -10.62822
 Alpha  occ. eigenvalues --   -1.26042  -1.16154  -1.06402  -0.97357  -0.89061
 Alpha  occ. eigenvalues --   -0.85128  -0.76377  -0.71875  -0.68625  -0.61917
 Alpha  occ. eigenvalues --   -0.60428  -0.59306  -0.57988  -0.53625  -0.53061
 Alpha  occ. eigenvalues --   -0.51631  -0.50563  -0.48161  -0.45629  -0.44478
 Alpha  occ. eigenvalues --   -0.42389  -0.39543  -0.37730  -0.35849  -0.30544
 Alpha  occ. eigenvalues --   -0.25069
 Alpha virt. eigenvalues --   -0.00190   0.02847   0.03793   0.04547   0.04819
 Alpha virt. eigenvalues --    0.05898   0.07074   0.07824   0.08311   0.09564
 Alpha virt. eigenvalues --    0.09747   0.10350   0.10885   0.12294   0.12836

 Mulliken charges:
               1
     1  C   -0.117477
     2  C   -0.426099
     3  C    0.470607
     4  C   -0.985378
     5  C    0.895578
     6  C   -0.586030
     7  C    0.845536
     8  O   -0.531705
     9  N   -0.666271
    10  O   -0.577106
    11  H    0.145166
    12  H    0.147727
    13  H    0.129671
    14  H    0.173417
    15  H    0.395647
    16  H    0.372178
    17  H    0.314538
 Sum of Mulliken charges =  -0.00000

 Dipole moment (field-independent basis, Debye):
    X=             -1.3536    Y=              0.3685    Z=             -0.0007  Tot=              1.4028
 Quadrupole moment (field-independent basis, Debye-Ang):
   XX=            -52.3544   YY=            -50.9409   ZZ=            -62.8633
   XY=             -5.4753   XZ=             -0.0016   YZ=             -0.0010

  Exact polarizability: 127.381   4.291 115.375  -0.002   0.002  54.260
 Approx polarizability: 140.937   8.485 140.727  -0.003   0.006  66.960

 ******    1 imaginary frequencies (negative Signs) ******

                      1                      2                      3
                      A                      A                      A
 Frequencies --   -299.7687                74.9063               144.0960
 Red. masses --      1.4180                 7.1596                 3.6040
 Frc consts  --      0.0751                 0.0237                 0.0441
 IR Inten    --    182.3709                 2.9599                 6.6970

                      4                      5                      6
                      A                      A                      A
 Frequencies --    218.3574               256.0485               370.4735
 Red. masses --      4.3156                 5.8323                 5.1941
 Frc consts  --      0.1212                 0.2253                 0.4200
 IR Inten    --      7.1176                 0.8934                 7.4186

                      7                      8                      9
                      A                      A                      A
 Frequencies --    400.1555               417.3931               511.1685
 Red. masses --      3.2719                 5.8663                 4.2082
 Frc consts  --      0.3087                 0.6021                 0.6479
 IR Inten    --      6.4100                 0.9490                 4.9287

                     10                     11                     12
                      A                      A                      A
 Frequencies --    513.4532               562.6969               570.4057
 Red. masses --      3.3221                 1.2797                 6.8522
 Frc consts  --      0.5160                 0.2387                 1.3135
 IR Inten    --     21.7499                71.4480                 1.4179

                     13                     14                     15
                      A                      A                      A
 Frequencies --    583.6823               598.0436               647.8795
 Red. masses --      1.7441                 1.5917                 5.3176
 Frc consts  --      0.3501                 0.3354                 1.3151
 IR Inten    --      0.9505                38.6651                49.8827

                     16                     17                     18
                      A                      A                      A
 Frequencies --    738.2238               751.1804               772.1288
 Red. masses --      2.0713                 4.3182                 2.3137
 Frc consts  --      0.6651                 1.4356                 0.8127
 IR Inten    --     99.6916                12.5584                 3.1701

                     19                     20                     21
                      A                      A                      A
 Frequencies --    825.9998               867.3341               939.5322
 Red. masses --      1.2796                 5.3594                 1.2550
 Frc consts  --      0.5144                 2.3754                 0.6527
 IR Inten    --      0.1088                 6.8542                 0.4283

                     22                     23                     24
                      A                      A                      A
 Frequencies --    951.7267              1044.5079              1079.7666
 Red. masses --      1.2474                 2.1310                 2.1522
 Frc consts  --      0.6657                 1.3698                 1.4784
 IR Inten    --      0.0071                 3.2621                32.7551

                     25                     26                     27
                      A                      A                      A
 Frequencies --   1096.6180              1183.9512              1195.5753
 Red. masses --      3.2257                 1.3514                 1.2344
 Frc consts  --      2.2855                 1.1161                 1.0396
 IR Inten    --    130.7860                69.6518               136.6799

                     28                     29                     30
                      A                      A                      A
 Frequencies --   1212.1163              1318.8579              1354.4561
 Red. masses --      1.4855                 1.9570                 1.9953
 Frc consts  --      1.2860                 2.0056                 2.1567
 IR Inten    --    151.7889                 2.6740                59.4152

                     31                     32                     33
                      A                      A                      A
 Frequencies --   1382.8699              1418.4764              1499.4459
 Red. masses --      3.0007                 5.9182                 2.5498
 Frc consts  --      3.3809                 7.0160                 3.3777
 IR Inten    --    121.6862                22.7931                12.4156

                     34                     35                     36
                      A                      A                      A
 Frequencies --   1534.2307              1610.7134              1642.1697
 Red. masses --      2.3138                 3.0789                 2.1796
 Frc consts  --      3.2090                 4.7063                 3.4631
 IR Inten    --     45.4634                81.6849               167.7523

                     37                     38                     39
                      A                      A                      A
 Frequencies --   1677.0144              1744.3812              3205.7185
 Red. masses --      3.3506                 6.5451                 1.0876
 Frc consts  --      5.5519                11.7340                 6.5854
 IR Inten    --    161.4523               390.6186                 8.4637

                     40                     41                     42
                      A                      A                      A
 Frequencies --   3224.5817              3241.2904              3260.0932
 Red. masses --      1.0919                 1.0925                 1.0948
 Frc consts  --      6.6894                 6.7623                 6.8553
 IR Inten    --     15.0713                 9.4261                 4.8326

                     43                     44                     45
                      A                      A                      A
 Frequencies --   3599.0105              3768.5087              3788.2899
 Red. masses --      1.0491                 1.1021                 1.0647
 Frc consts  --      8.0061                 9.2216                 9.0023
 IR Inten    --    105.5194                84.1075               100.8917

 - Thermochemistry -
 -------------------
 Temperature   298.150 Kelvin.  Pressure   1.00000 Atm.
 Atom     1 has atomic number  6 and mass  12.00000

 Molecular mass:   137.04768 amu.
 Principal axes and moments of inertia in atomic units:
                           1         2         3
     Eigenvalues --   787.768191488.548342276.31650
           X            0.99999  -0.00438  -0.00000
           Y            0.00438   0.99999  -0.00001
           Z            0.00000   0.00001   1.00000
 This molecule is an asymmetric top.
 Rotational symmetry number  1.
 Warning -- assumption of classical behavior for rotation
           may cause significant error
 Rotational temperatures (Kelvin)      0.10995     0.05819     0.03805
 Rotational constants (GHZ):           2.29095     1.21242     0.79283
    1 imaginary frequencies ignored.
 Zero-point vibrational energy     345706.0 (Joules/Mol)
                                   82.62572 (Kcal/Mol)
 Warning -- explicit consideration of  13 degrees of freedom as
           vibrations may cause significant error
 Vibrational temperatures:    107.77   207.32   314.17   368.40   533.03
          (Kelvin)            575.73   600.53   735.46   738.74   809.59
                              820.69   839.79   860.45   932.15  1062.14
                             1080.78  1110.92  1188.43  1247.90  1351.78
                             1369.32  1502.81  1553.54  1577.79  1703.44
                             1720.16  1743.96  1897.54  1948.76  1989.64
                             2040.87  2157.37  2207.41  2317.45  2362.71
                             2412.85  2509.77  4612.31  4639.45  4663.49
                             4690.54  5178.17  5422.04  5450.50

 Zero-point correction=                           0.131672 (Hartree/Particle)
 Thermal correction to Energy=                    0.139838
 Thermal correction to Enthalpy=                  0.140782
 Thermal correction to Gibbs Free Energy=         0.098605
 Sum of electronic and zero-point Energies=           -475.624746
 Sum of electronic and thermal Energies=              -475.616581
 Sum of electronic and thermal Enthalpies=            -475.615636
 Sum of electronic and thermal Free Energies=         -475.657814

                     E (Thermal)             CV                S
                      KCal/Mol        Cal/Mol-Kelvin    Cal/Mol-Kelvin
 Total                   87.750             32.066             88.769
 Electronic               0.000              0.000              0.000
 Translational            0.889              2.981             40.657
 Rotational               0.889              2.981             29.369
 Vibrational             85.972             26.104             18.743
 Vibration     1          0.599              1.966              4.020
 Vibration     2          0.616              1.909              2.749
 Vibration     3          0.646              1.813              1.973
 Vibration     4          0.666              1.753              1.689
 Vibration     5          0.742              1.533              1.078
 Vibration     6          0.766              1.470              0.962
 Vibration     7          0.780              1.432              0.901
 Vibration     8          0.866              1.225              0.631
 Vibration     9          0.869              1.220              0.625
 Vibration    10          0.918              1.112              0.518
 Vibration    11          0.927              1.095              0.503
 Vibration    12          0.941              1.067              0.479
 Vibration    13          0.956              1.036              0.453

 Optimization completed.
    -- Stationary point found.
 Normal termination of Gaussian 09 at Sun Dec 15 21:55:34 2024.
