 Gaussian 09, Revision E.01,
 Gaussian 09:  ES64L-G09RevE.01 30-Nov-2015

 ----------------------------
 # opt freq b3lyp/6-31+g(d,p)
 ----------------------------

 ----------
 [No Title]
 ----------
 Symbolic Z-matrix:
 Charge =  0 Multiplicity = 1

 SCF Done:  E(RB3LYP) =  -476.171712253     A.U. after   15 cycles
 SCF Done:  E(RB3LYP) =  -476.217455799     A.U. after   14 cycles
 SCF Done:  E(RB3LYP) =  -476.224314422     A.U. after   13 cycles
 SCF Done:  E(RB3LYP) =  -476.224550544     A.U. after   12 cycles
 SCF Done:  E(RB3LYP) =  -476.224909374     A.U. after   12 cycles
 SCF Done:  E(RB3LYP) =  -476.224921299     A.U. after   11 cycles
 SCF Done:  E(RB3LYP) =  -476.224922565     A.U. after   10 cycles
 SCF Done:  E(RB3LYP) =  -476.224922610     A.U. after   10 cycles
 Optimization completed.
    -- Stationary point found.
 Normal termination of Gaussian 09 at Sat Jun 22 16:36:23 2024.

 ----------------------------------------------------------------------
 #N Geom=AllCheck Guess=TCheck SCRF=Check GenChk RB3LYP/6-31+G(d,p) Fre
 q
 ----------------------------------------------------------------------

 Structure from the checkpoint file:  "b3lypAnthranilic.chk"
 ----------
 [No Title]
 ----------
 Charge =  0 Multiplicity = 1

                         Standard orientation:
 ---------------------------------------------------------------------
 Center     Atomic      Atomic             Coordinates (Angstroms)
 Number     Number       Type             X           Y           Z
 ---------------------------------------------------------------------
      1          6           0       -1.859221   -1.523389   -0.000022
      2          6           0       -2.589424   -0.321626    0.000218
      3          6           0       -1.944016    0.903063    0.000202
      4          6           0       -0.529934    0.987718   -0.000059
      5          6           0        0.213499   -0.231649   -0.000312
      6          6           0       -0.475244   -1.464112   -0.000259
      7          6           0        1.679323   -0.202258   -0.000591
      8          8           0        2.260625   -1.431921    0.000334
      9          7           0        0.075816    2.208172   -0.000106
     10          8           0        2.380526    0.808024    0.000272
     11          1           0       -2.369909   -2.480363   -0.000013
     12          1           0       -3.675740   -0.347621    0.000418
     13          1           0       -2.520863    1.824385    0.000379
     14          1           0        0.109444   -2.376621   -0.000435
     15          1           0        3.219372   -1.277043    0.000848
     16          1           0        1.086391    2.256975   -0.000404
     17          1           0       -0.478512    3.047779    0.000045
 ---------------------------------------------------------------------

 SCF Done:  E(RB3LYP) =  -476.224922610     A.U. after    1 cycles

 The electronic state is 1-A.
 Alpha  occ. eigenvalues --  -19.20717 -19.15278 -14.35745 -10.33218 -10.25769
 Alpha  occ. eigenvalues --  -10.20977 -10.20934 -10.20603 -10.19995 -10.19263
 Alpha  occ. eigenvalues --   -1.11509  -1.02256  -0.93813  -0.85248  -0.77742
 Alpha  occ. eigenvalues --   -0.74214  -0.66796  -0.62846  -0.59986  -0.54186
 Alpha  occ. eigenvalues --   -0.53000  -0.51436  -0.49460  -0.46267  -0.45823
 Alpha  occ. eigenvalues --   -0.44483  -0.43542  -0.40890  -0.39452  -0.37892
 Alpha  occ. eigenvalues --   -0.36102  -0.33290  -0.32330  -0.29029  -0.26836
 Alpha  occ. eigenvalues --   -0.21701
 Alpha virt. eigenvalues --   -0.05590  -0.00594  -0.00278   0.00710   0.01565
 Alpha virt. eigenvalues --    0.03119   0.04063   0.04454   0.05261   0.05304
 Alpha virt. eigenvalues --    0.06826   0.07272   0.08064   0.09250   0.09875

 Mulliken charges:
               1
     1  C   -0.033101
     2  C   -0.449410
     3  C    0.434373
     4  C   -0.922048
     5  C    0.983703
     6  C   -0.737145
     7  C    0.822281
     8  O   -0.488425
     9  N   -0.637210
    10  O   -0.530165
    11  H    0.125009
    12  H    0.126964
    13  H    0.109906
    14  H    0.152365
    15  H    0.384971
    16  H    0.353867
    17  H    0.304062
 Sum of Mulliken charges =  -0.00000

 Dipole moment (field-independent basis, Debye):
    X=             -1.2333    Y=              0.5540    Z=             -0.0007  Tot=              1.3520
 Quadrupole moment (field-independent basis, Debye-Ang):
   XX=            -52.7077   YY=            -50.8261   ZZ=            -62.5030
   XY=             -5.2621   XZ=             -0.0015   YZ=             -0.0011

  Exact polarizability: 129.143   4.023 115.900  -0.004   0.003  54.219
 Approx polarizability: 196.161  11.624 195.311  -0.007   0.010  78.994

 ******    1 imaginary frequencies (negative Signs) ******

                      1                      2                      3
                      A                      A                      A
 Frequencies --    -48.6465                93.0014               181.7659
 Red. masses --      2.8297                 4.8528                 1.6550
 Frc consts  --      0.0039                 0.0247                 0.0322
 IR Inten    --     88.6030                15.0748                77.2014

                      4                      5                      6
                      A                      A                      A
 Frequencies --    237.9753               254.6469               368.6366
 Red. masses --      4.2221                 5.7647                 5.1320
 Frc consts  --      0.1409                 0.2202                 0.4109
 IR Inten    --      6.1986                 1.0670                 8.2149

                      7                      8                      9
                      A                      A                      A
 Frequencies --    418.8830               429.6794               511.2306
 Red. masses --      5.8908                 3.0192                 4.2065
 Frc consts  --      0.6090                 0.3284                 0.6477
 IR Inten    --      1.0266                 6.5679                 4.9684

                     10                     11                     12
                      A                      A                      A
 Frequencies --    538.5075               569.0924               577.7931
 Red. masses --      2.8912                 6.8441                 1.1945
 Frc consts  --      0.4940                 1.3060                 0.2350
 IR Inten    --     11.6791                 1.5199                94.7241

                     13                     14                     15
                      A                      A                      A
 Frequencies --    623.7312               648.3262               717.3586
 Red. masses --      1.0368                 5.3005                 3.1523
 Frc consts  --      0.2376                 1.3127                 0.9558
 IR Inten    --     20.5635                50.0935                46.5958

                     16                     17                     18
                      A                      A                      A
 Frequencies --    749.1812               764.8462               804.6586
 Red. masses --      4.2526                 1.4859                 3.3391
 Frc consts  --      1.4063                 0.5121                 1.2738
 IR Inten    --     12.4356                55.6900                 2.3223

                     19                     20                     21
                      A                      A                      A
 Frequencies --    862.0854               865.3895               970.7445
 Red. masses --      1.7742                 5.3401                 1.3568
 Frc consts  --      0.7769                 2.3563                 0.7533
 IR Inten    --      3.7359                 6.2641                 0.5647

                     22                     23                     24
                      A                      A                      A
 Frequencies --    991.0559              1038.5378              1074.0185
 Red. masses --      1.3007                 2.0838                 2.0256
 Frc consts  --      0.7527                 1.3242                 1.3767
 IR Inten    --      0.0220                 4.4426                22.1974

                     25                     26                     27
                      A                      A                      A
 Frequencies --   1093.3150              1176.5129              1186.1925
 Red. masses --      3.6163                 1.3523                 1.2581
 Frc consts  --      2.5468                 1.1029                 1.0430
 IR Inten    --    130.5566                89.5291               142.1296

                     28                     29                     30
                      A                      A                      A
 Frequencies --   1203.2427              1309.9025              1343.6134
 Red. masses --      1.4771                 1.9964                 2.0471
 Frc consts  --      1.2600                 2.0183                 2.1774
 IR Inten    --    154.2338                 2.7837                55.7182

                     31                     32                     33
                      A                      A                      A
 Frequencies --   1372.8192              1400.7389              1489.5930
 Red. masses --      2.9101                 5.3113                 2.5739
 Frc consts  --      3.2314                 6.1399                 3.3649
 IR Inten    --     88.4611                50.7245                13.6261

                     34                     35                     36
                      A                      A                      A
 Frequencies --   1521.1629              1596.3077              1627.1008
 Red. masses --      2.2816                 3.0145                 2.0133
 Frc consts  --      3.1106                 4.5259                 3.1404
 IR Inten    --     38.1642                92.1277               190.4755

                     37                     38                     39
                      A                      A                      A
 Frequencies --   1664.7266              1744.5407              3173.8381
 Red. masses --      4.0538                 6.8464                 1.0871
 Frc consts  --      6.6191                12.2765                 6.4519
 IR Inten    --    152.9233               414.4454                 8.8290

                     40                     41                     42
                      A                      A                      A
 Frequencies --   3191.6104              3208.6483              3228.7058
 Red. masses --      1.0919                 1.0922                 1.0942
 Frc consts  --      6.5530                 6.6252                 6.7203
 IR Inten    --     16.7716                10.1338                 4.4649

                     43                     44                     45
                      A                      A                      A
 Frequencies --   3558.7722              3731.1970              3772.2692
 Red. masses --      1.0503                 1.1008                 1.0646
 Frc consts  --      7.8374                 9.0292                 8.9260
 IR Inten    --    109.4526                76.3559                99.6732

 - Thermochemistry -
 -------------------
 Temperature   298.150 Kelvin.  Pressure   1.00000 Atm.
 Atom     1 has atomic number  6 and mass  12.00000

 Molecular mass:   137.04768 amu.
 Principal axes and moments of inertia in atomic units:
                           1         2         3
     Eigenvalues --   787.282281491.400122278.68232
           X            0.99999  -0.00427  -0.00000
           Y            0.00427   0.99999  -0.00000
           Z            0.00000   0.00000   1.00000
 This molecule is an asymmetric top.
 Rotational symmetry number  1.
 Warning -- assumption of classical behavior for rotation
           may cause significant error
 Rotational temperatures (Kelvin)      0.11002     0.05808     0.03801
 Rotational constants (GHZ):           2.29237     1.21010     0.79201
    1 imaginary frequencies ignored.
 Zero-point vibrational energy     346234.9 (Joules/Mol)
                                   82.75213 (Kcal/Mol)
 Warning -- explicit consideration of  11 degrees of freedom as
           vibrations may cause significant error
 Vibrational temperatures:    133.81   261.52   342.39   366.38   530.39
          (Kelvin)            602.68   618.21   735.55   774.79   818.80
                              831.31   897.41   932.80  1032.12  1077.90
                             1100.44  1157.72  1240.35  1245.10  1396.68
                             1425.91  1494.22  1545.27  1573.03  1692.74
                             1706.66  1731.20  1884.66  1933.16  1975.18
                             2015.35  2143.19  2188.61  2296.73  2341.03
                             2395.17  2510.00  4566.44  4592.01  4616.52
                             4645.38  5120.27  5368.35  5427.45

 Zero-point correction=                           0.131874 (Hartree/Particle)
 Thermal correction to Energy=                    0.139751
 Thermal correction to Enthalpy=                  0.140696
 Thermal correction to Gibbs Free Energy=         0.099238
 Sum of electronic and zero-point Energies=           -476.093049
 Sum of electronic and thermal Energies=              -476.085171
 Sum of electronic and thermal Enthalpies=            -476.084227
 Sum of electronic and thermal Free Energies=         -476.125684

                     E (Thermal)             CV                S
                      KCal/Mol        Cal/Mol-Kelvin    Cal/Mol-Kelvin
 Total                   87.695             31.336             87.254
 Electronic               0.000              0.000              0.000
 Translational            0.889              2.981             40.657
 Rotational               0.889              2.981             29.371
 Vibrational             85.918             25.374             17.225
 Vibration     1          0.602              1.954              3.596
 Vibration     2          0.630              1.865              2.310
 Vibration     3          0.656              1.782              1.818
 Vibration     4          0.665              1.755              1.698
 Vibration     5          0.741              1.537              1.085
 Vibration     6          0.782              1.429              0.896
 Vibration     7          0.791              1.406              0.860
 Vibration     8          0.866              1.225              0.631
 Vibration     9          0.894              1.165              0.569
 Vibration    10          0.925              1.098              0.506
 Vibration    11          0.934              1.079              0.489

 Optimization completed.
    -- Stationary point found.
 Normal termination of Gaussian 09 at Sat Jun 22 16:37:36 2024.
