 Gaussian 09, Revision E.01,
 Gaussian 09:  ES64L-G09RevE.01 30-Nov-2015

 ----------------------------
 # opt freq b3lyp/6-31+g(d,p)
 ----------------------------

 ----------
 [No Title]
 ----------
 Symbolic Z-matrix:
 Charge =  1 Multiplicity = 1

 SCF Done:  E(RB3LYP) =  -476.527627424     A.U. after   15 cycles
 SCF Done:  E(RB3LYP) =  -476.563402560     A.U. after   13 cycles
 SCF Done:  E(RB3LYP) =  -476.566928214     A.U. after   13 cycles
 SCF Done:  E(RB3LYP) =  -476.570310784     A.U. after   13 cycles
 SCF Done:  E(RB3LYP) =  -476.571092652     A.U. after   12 cycles
 SCF Done:  E(RB3LYP) =  -476.571156871     A.U. after   11 cycles
 SCF Done:  E(RB3LYP) =  -476.571158634     A.U. after   11 cycles
 SCF Done:  E(RB3LYP) =  -476.571162132     A.U. after   10 cycles
 SCF Done:  E(RB3LYP) =  -476.571165205     A.U. after   10 cycles
 SCF Done:  E(RB3LYP) =  -476.572000278     A.U. after   13 cycles
 SCF Done:  E(RB3LYP) =  -476.573711611     A.U. after   14 cycles
 SCF Done:  E(RB3LYP) =  -476.575765494     A.U. after   14 cycles
 SCF Done:  E(RB3LYP) =  -476.576771718     A.U. after   13 cycles
 SCF Done:  E(RB3LYP) =  -476.576844343     A.U. after   12 cycles
 SCF Done:  E(RB3LYP) =  -476.577087029     A.U. after   12 cycles
 SCF Done:  E(RB3LYP) =  -476.577158473     A.U. after   11 cycles
 SCF Done:  E(RB3LYP) =  -476.577173640     A.U. after   11 cycles
 SCF Done:  E(RB3LYP) =  -476.577176034     A.U. after   10 cycles
 SCF Done:  E(RB3LYP) =  -476.577176226     A.U. after    8 cycles
 Optimization completed.
    -- Stationary point found.
 Normal termination of Gaussian 09 at Sat Jun 22 16:30:10 2024.

 ----------------------------------------------------------------------
 #N Geom=AllCheck Guess=TCheck SCRF=Check GenChk RB3LYP/6-31+G(d,p) Fre
 q
 ----------------------------------------------------------------------

 Structure from the checkpoint file:  "b3lypAnthranilicyang.chk"
 ----------
 [No Title]
 ----------
 Charge =  1 Multiplicity = 1

                         Standard orientation:
 ---------------------------------------------------------------------
 Center     Atomic      Atomic             Coordinates (Angstroms)
 Number     Number       Type             X           Y           Z
 ---------------------------------------------------------------------
      1          6           0       -1.939390   -1.475838   -0.000302
      2          6           0       -2.623116   -0.258417    0.000119
      3          6           0       -1.914065    0.948453    0.000370
      4          6           0       -0.528397    0.911229    0.000146
      5          6           0        0.187071   -0.301902   -0.000072
      6          6           0       -0.544756   -1.499127   -0.000301
      7          6           0        1.673355   -0.302199   -0.000002
      8          8           0        2.222725   -1.506299    0.000512
      9          7           0        0.238354    2.181978   -0.000079
     10          8           0        2.348961    0.733494   -0.000352
     11          1           0       -2.492101   -2.409155   -0.000625
     12          1           0       -3.707882   -0.239496    0.000211
     13          1           0       -2.445144    1.896404    0.000772
     14          1           0       -0.010986   -2.442250   -0.000345
     15          1           0        3.194062   -1.421697    0.000471
     16          1           0        0.041360    2.751607    0.828966
     17          1           0        1.272402    1.889357    0.000085
     18          1           0        0.042110    2.750631   -0.830004
 ---------------------------------------------------------------------

 SCF Done:  E(RB3LYP) =  -476.577176226     A.U. after    1 cycles

 The electronic state is 1-A.
 Alpha  occ. eigenvalues --  -19.37585 -19.33124 -14.62871 -10.51210 -10.43514
 Alpha  occ. eigenvalues --  -10.39462 -10.37946 -10.37235 -10.37141 -10.36281
 Alpha  occ. eigenvalues --   -1.29214  -1.20695  -1.17482  -1.03831  -0.94991
 Alpha  occ. eigenvalues --   -0.92692  -0.84217  -0.80996  -0.78073  -0.75788
 Alpha  occ. eigenvalues --   -0.74024  -0.71317  -0.68546  -0.66788  -0.63093
 Alpha  occ. eigenvalues --   -0.62975  -0.61687  -0.61009  -0.57063  -0.54562
 Alpha  occ. eigenvalues --   -0.54227  -0.52927  -0.50094  -0.47000  -0.43686
 Alpha  occ. eigenvalues --   -0.43506
 Alpha virt. eigenvalues --   -0.23072  -0.19189  -0.17077  -0.12639  -0.12280
 Alpha virt. eigenvalues --   -0.11441  -0.10224  -0.09536  -0.08333  -0.07412
 Alpha virt. eigenvalues --   -0.06360  -0.06177  -0.05211  -0.04149  -0.04147

 Mulliken charges:
               1
     1  C    0.016451
     2  C   -0.367069
     3  C    0.535096
     4  C   -1.014269
     5  C    1.053868
     6  C   -0.815194
     7  C    0.781792
     8  O   -0.433271
     9  N   -0.662934
    10  O   -0.476439
    11  H    0.177363
    12  H    0.178336
    13  H    0.164453
    14  H    0.192495
    15  H    0.417448
    16  H    0.403431
    17  H    0.444950
    18  H    0.403495
 Sum of Mulliken charges =   1.00000

 Dipole moment (field-independent basis, Debye):
    X=             -1.2047    Y=              4.2323    Z=             -0.0005  Tot=              4.4004
 Quadrupole moment (field-independent basis, Debye-Ang):
   XX=            -36.5057   YY=            -29.0312   ZZ=            -56.5877
   XY=             -3.5778   XZ=              0.0007   YZ=              0.0012

  Exact polarizability: 118.050   0.581 102.291  -0.003   0.004  48.824
 Approx polarizability: 183.471   2.189 170.254  -0.009   0.009  73.039

                      1                      2                      3
                      A                      A                      A
 Frequencies --     89.5838               132.0727               231.5783
 Red. masses --      6.0809                 3.7030                 3.2272
 Frc consts  --      0.0288                 0.0381                 0.1020
 IR Inten    --      6.5207                 1.7529                19.1660

                      4                      5                      6
                      A                      A                      A
 Frequencies --    271.0199               334.2628               370.3298
 Red. masses --      5.2126                 1.1819                 3.9307
 Frc consts  --      0.2256                 0.0778                 0.3176
 IR Inten    --     10.1750                 0.2978                65.1729

                      7                      8                      9
                      A                      A                      A
 Frequencies --    425.3127               430.9538               490.0802
 Red. masses --      3.0251                 7.9548                 3.1936
 Frc consts  --      0.3224                 0.8704                 0.4519
 IR Inten    --      9.7184                 3.2000                 5.0937

                     10                     11                     12
                      A                      A                      A
 Frequencies --    500.6177               563.2040               624.1978
 Red. masses --      4.6017                 6.2518                 1.2830
 Frc consts  --      0.6795                 1.1684                 0.2945
 IR Inten    --      4.3181                 2.6847                72.1130

                     13                     14                     15
                      A                      A                      A
 Frequencies --    659.8887               702.0842               748.6174
 Red. masses --      5.4085                 3.0610                 4.0964
 Frc consts  --      1.3876                 0.8890                 1.3526
 IR Inten    --     78.9571                44.5934                45.1804

                     16                     17                     18
                      A                      A                      A
 Frequencies --    761.8541               808.5246               828.1414
 Red. masses --      1.6389                 2.4843                 5.3071
 Frc consts  --      0.5605                 0.9568                 2.1444
 IR Inten    --     90.7415                 1.2224                12.9791

                     19                     20                     21
                      A                      A                      A
 Frequencies --    899.5653               992.8015              1031.5379
 Red. masses --      1.3622                 1.3677                 1.3513
 Frc consts  --      0.6495                 0.7942                 0.8472
 IR Inten    --      0.0464                 0.5019                 0.0002

                     22                     23                     24
                      A                      A                      A
 Frequencies --   1059.4340              1077.5790              1120.6313
 Red. masses --      2.3446                 2.3388                 1.3147
 Frc consts  --      1.5505                 1.6001                 0.9727
 IR Inten    --      8.6047                14.8976                 8.5935

                     25                     26                     27
                      A                      A                      A
 Frequencies --   1123.6212              1178.4760              1195.8937
 Red. masses --      2.1501                 1.6458                 2.3459
 Frc consts  --      1.5993                 1.3467                 1.9767
 IR Inten    --     88.0815                 6.1990                51.5733

                     28                     29                     30
                      A                      A                      A
 Frequencies --   1201.5054              1209.7915              1321.9769
 Red. masses --      1.2089                 1.6690                 1.5663
 Frc consts  --      1.0282                 1.4392                 1.6128
 IR Inten    --     66.1159               104.1466                 2.7783

                     31                     32                     33
                      A                      A                      A
 Frequencies --   1371.9108              1429.0802              1484.3191
 Red. masses --      5.2384                 2.7774                 1.7050
 Frc consts  --      5.8090                 3.3419                 2.2133
 IR Inten    --     26.2566               257.6479               175.9635

                     34                     35                     36
                      A                      A                      A
 Frequencies --   1495.8412              1532.6528              1610.7705
 Red. masses --      1.9084                 2.4122                 1.8397
 Frc consts  --      2.5159                 3.3384                 2.8123
 IR Inten    --    125.0621                87.9518                18.2644

                     37                     38                     39
                      A                      A                      A
 Frequencies --   1633.6211              1669.9584              1675.0713
 Red. masses --      2.4732                 3.2809                 1.0446
 Frc consts  --      3.8888                 5.3909                 1.7269
 IR Inten    --     22.8642                48.6264                38.6437

                     40                     41                     42
                      A                      A                      A
 Frequencies --   1730.1384              2646.9557              3196.2044
 Red. masses --      4.4462                 1.0927                 1.0918
 Frc consts  --      7.8416                 4.5105                 6.5713
 IR Inten    --    243.6355               664.2449                 0.6483

                     43                     44                     45
                      A                      A                      A
 Frequencies --   3217.0057              3227.7062              3238.9139
 Red. masses --      1.0905                 1.0953                 1.0953
 Frc consts  --      6.6492                 6.7231                 6.7698
 IR Inten    --      0.1288                 0.6241                 3.1454

                     46                     47                     48
                      A                      A                      A
 Frequencies --   3433.2909              3496.3914              3730.2659
 Red. masses --      1.0522                 1.0944                 1.0651
 Frc consts  --      7.3075                 7.8826                 8.7325
 IR Inten    --     94.6300                97.5506               214.9709

 - Thermochemistry -
 -------------------
 Temperature   298.150 Kelvin.  Pressure   1.00000 Atm.
 Atom     1 has atomic number  6 and mass  12.00000

 Molecular mass:   138.05550 amu.
 Principal axes and moments of inertia in atomic units:
                           1         2         3
     Eigenvalues --   807.727791499.843032297.66561
           X            1.00000   0.00145  -0.00000
           Y           -0.00145   1.00000   0.00001
           Z            0.00000  -0.00001   1.00000
 This molecule is an asymmetric top.
 Rotational symmetry number  1.
 Warning -- assumption of classical behavior for rotation
           may cause significant error
 Rotational temperatures (Kelvin)      0.10723     0.05775     0.03770
 Rotational constants (GHZ):           2.23434     1.20329     0.78547
 Zero-point vibrational energy     384032.6 (Joules/Mol)
                                   91.78599 (Kcal/Mol)
 Warning -- explicit consideration of  11 degrees of freedom as
           vibrations may cause significant error
 Vibrational temperatures:    128.89   190.02   333.19   389.94   480.93
          (Kelvin)            532.82   611.93   620.05   705.12   720.28
                              810.32   898.08   949.43  1010.14  1077.09
                             1096.14  1163.29  1191.51  1294.27  1428.42
                             1484.15  1524.29  1550.39  1612.34  1616.64
                             1695.56  1720.62  1728.70  1740.62  1902.03
                             1973.87  2056.13  2135.60  2152.18  2205.14
                             2317.54  2350.41  2402.69  2410.05  2489.28
                             3808.37  4598.62  4628.55  4643.94  4660.07
                             4939.73  5030.52  5367.01

 Zero-point correction=                           0.146270 (Hartree/Particle)
 Thermal correction to Energy=                    0.154491
 Thermal correction to Enthalpy=                  0.155436
 Thermal correction to Gibbs Free Energy=         0.113218
 Sum of electronic and zero-point Energies=           -476.430906
 Sum of electronic and thermal Energies=              -476.422685
 Sum of electronic and thermal Enthalpies=            -476.421741
 Sum of electronic and thermal Free Energies=         -476.463959

                     E (Thermal)             CV                S
                      KCal/Mol        Cal/Mol-Kelvin    Cal/Mol-Kelvin
 Total                   96.945             32.342             88.855
 Electronic               0.000              0.000              0.000
 Translational            0.889              2.981             40.679
 Rotational               0.889              2.981             29.411
 Vibrational             95.167             26.381             18.765
 Vibration     1          0.602              1.957              3.669
 Vibration     2          0.612              1.921              2.916
 Vibration     3          0.653              1.793              1.867
 Vibration     4          0.675              1.727              1.590
 Vibration     5          0.716              1.607              1.239
 Vibration     6          0.742              1.533              1.078
 Vibration     7          0.787              1.415              0.874
 Vibration     8          0.792              1.403              0.856
 Vibration     9          0.846              1.272              0.683
 Vibration    10          0.856              1.249              0.657
 Vibration    11          0.919              1.111              0.517

 Optimization completed.
    -- Stationary point found.
 Normal termination of Gaussian 09 at Sat Jun 22 16:31:20 2024.
