 Gaussian 09, Revision E.01,
 Gaussian 09:  ES64L-G09RevE.01 30-Nov-2015

 -----------------------------
 # opt freq b3pw91/6-31+g(d,p)
 -----------------------------

 ----------
 [No Title]
 ----------
 Symbolic Z-matrix:
 Charge =  1 Multiplicity = 1

 SCF Done:  E(RB3PW91) =  -476.393820528     A.U. after   14 cycles
 SCF Done:  E(RB3PW91) =  -476.393937958     A.U. after   12 cycles
 SCF Done:  E(RB3PW91) =  -476.393888356     A.U. after   12 cycles
 SCF Done:  E(RB3PW91) =  -476.393969235     A.U. after    7 cycles
 SCF Done:  E(RB3PW91) =  -476.393981094     A.U. after   11 cycles
 SCF Done:  E(RB3PW91) =  -476.393986194     A.U. after   10 cycles
 SCF Done:  E(RB3PW91) =  -476.393984222     A.U. after   10 cycles
 SCF Done:  E(RB3PW91) =  -476.393986974     A.U. after   10 cycles
 Optimization completed.
    -- Stationary point found.
 Normal termination of Gaussian 09 at Sun Dec 15 22:30:35 2024.

 ----------------------------------------------------------------------
 #N Geom=AllCheck Guess=TCheck SCRF=Check GenChk RB3PW91/6-31+G(d,p) Fr
 eq
 ----------------------------------------------------------------------

 Structure from the checkpoint file:  "B3PWAnthranilicyang.chk"
 ----------
 [No Title]
 ----------
 Charge =  1 Multiplicity = 1

                         Standard orientation:
 ---------------------------------------------------------------------
 Center     Atomic      Atomic             Coordinates (Angstroms)
 Number     Number       Type             X           Y           Z
 ---------------------------------------------------------------------
      1          6           0        1.941720   -1.466149   -0.000000
      2          6           0        2.618705   -0.247464   -0.000005
      3          6           0        1.906724    0.954728    0.000003
      4          6           0        0.523117    0.912134    0.000012
      5          6           0       -0.184078   -0.302734    0.000042
      6          6           0        0.549736   -1.495483    0.000021
      7          6           0       -1.666101   -0.306046    0.000119
      8          8           0       -2.213068   -1.504818   -0.000149
      9          7           0       -0.251972    2.166576   -0.000026
     10          8           0       -2.341287    0.728793    0.000074
     11          1           0        2.499082   -2.397147   -0.000006
     12          1           0        3.703814   -0.224327   -0.000022
     13          1           0        2.434464    1.904952   -0.000015
     14          1           0        0.018883   -2.441097    0.000040
     15          1           0       -3.182365   -1.417851   -0.000232
     16          1           0       -0.063428    2.736676   -0.828874
     17          1           0       -1.287195    1.850394   -0.000122
     18          1           0       -0.063544    2.736660    0.828859
 ---------------------------------------------------------------------

 SCF Done:  E(RB3PW91) =  -476.393986974     A.U. after    1 cycles

 The electronic state is 1-A.
 Alpha  occ. eigenvalues --  -19.36751 -19.32305 -14.61488 -10.49854 -10.42211
 Alpha  occ. eigenvalues --  -10.38197 -10.36626 -10.35990 -10.35853 -10.34989
 Alpha  occ. eigenvalues --   -1.30082  -1.21406  -1.17833  -1.04332  -0.95453
 Alpha  occ. eigenvalues --   -0.93031  -0.84658  -0.81346  -0.78416  -0.75842
 Alpha  occ. eigenvalues --   -0.74222  -0.71590  -0.68755  -0.67182  -0.63623
 Alpha  occ. eigenvalues --   -0.63073  -0.61748  -0.61022  -0.57264  -0.54895
 Alpha  occ. eigenvalues --   -0.54230  -0.52844  -0.50455  -0.47217  -0.43964
 Alpha  occ. eigenvalues --   -0.43757
 Alpha virt. eigenvalues --   -0.23208  -0.19186  -0.15667  -0.12608  -0.11187
 Alpha virt. eigenvalues --   -0.10334  -0.08914  -0.08301  -0.07155  -0.06255
 Alpha virt. eigenvalues --   -0.05269  -0.05087  -0.04186  -0.03153  -0.02908

 Mulliken charges:
               1
     1  C   -0.030183
     2  C   -0.471707
     3  C    0.696326
     4  C   -1.415230
     5  C    1.297549
     6  C   -0.786602
     7  C    0.709628
     8  O   -0.413497
     9  N   -0.634553
    10  O   -0.464063
    11  H    0.204487
    12  H    0.205391
    13  H    0.189776
    14  H    0.216103
    15  H    0.421146
    16  H    0.412076
    17  H    0.451272
    18  H    0.412079
 Sum of Mulliken charges =   1.00000

 Dipole moment (field-independent basis, Debye):
    X=              1.0481    Y=              4.1198    Z=             -0.0002  Tot=              4.2510
 Quadrupole moment (field-independent basis, Debye-Ang):
   XX=            -35.4326   YY=            -28.5843   ZZ=            -56.2430
   XY=              3.5658   XZ=              0.0008   YZ=             -0.0004

  Exact polarizability: 116.561  -0.514 100.910  -0.000   0.001  47.691
 Approx polarizability: 181.421  -2.085 168.078  -0.001   0.001  70.362

                      1                      2                      3
                      A                      A                      A
 Frequencies --     91.4500               131.4783               232.0806
 Red. masses --      6.1761                 3.7238                 3.2529
 Frc consts  --      0.0304                 0.0379                 0.1032
 IR Inten    --      6.2450                 1.5559                20.2070

                      4                      5                      6
                      A                      A                      A
 Frequencies --    271.3546               352.9005               374.4657
 Red. masses --      5.2021                 1.1820                 3.9423
 Frc consts  --      0.2257                 0.0867                 0.3257
 IR Inten    --     10.0799                 0.0679                73.2384

                      7                      8                      9
                      A                      A                      A
 Frequencies --    422.0499               434.5731               489.6264
 Red. masses --      3.0307                 7.8696                 3.1295
 Frc consts  --      0.3181                 0.8756                 0.4420
 IR Inten    --      9.6695                 3.5185                 5.7726

                     10                     11                     12
                      A                      A                      A
 Frequencies --    502.2902               563.4934               627.5330
 Red. masses --      4.6084                 6.2859                 1.2971
 Frc consts  --      0.6850                 1.1760                 0.3009
 IR Inten    --      3.9293                 2.8116                69.0524

                     13                     14                     15
                      A                      A                      A
 Frequencies --    660.7800               703.5041               755.6319
 Red. masses --      5.3712                 2.9865                 3.9856
 Frc consts  --      1.3818                 0.8709                 1.3408
 IR Inten    --     87.1338                43.2257                50.8185

                     16                     17                     18
                      A                      A                      A
 Frequencies --    761.4313               809.5911               831.8190
 Red. masses --      1.5973                 2.6099                 5.2614
 Frc consts  --      0.5456                 1.0079                 2.1449
 IR Inten    --     99.4511                 0.8208                13.7738

                     19                     20                     21
                      A                      A                      A
 Frequencies --    899.1405               992.7603              1030.7530
 Red. masses --      1.3571                 1.3675                 1.3500
 Frc consts  --      0.6464                 0.7941                 0.8450
 IR Inten    --      0.0414                 0.5484                 0.0001

                     22                     23                     24
                      A                      A                      A
 Frequencies --   1064.9293              1083.4703              1127.5115
 Red. masses --      2.3089                 2.2789                 1.3149
 Frc consts  --      1.5428                 1.5762                 0.9849
 IR Inten    --      7.9963                19.8166                 8.7200

                     25                     26                     27
                      A                      A                      A
 Frequencies --   1129.7001              1182.4603              1199.7454
 Red. masses --      1.9626                 1.6563                 1.1271
 Frc consts  --      1.4758                 1.3645                 0.9559
 IR Inten    --     75.3599                 3.7476                 4.8069

                     28                     29                     30
                      A                      A                      A
 Frequencies --   1207.1880              1217.6691              1320.4826
 Red. masses --      1.8876                 2.1711                 1.4841
 Frc consts  --      1.6207                 1.8967                 1.5247
 IR Inten    --    188.0789                30.1920                 4.5884

                     31                     32                     33
                      A                      A                      A
 Frequencies --   1392.4471              1440.8133              1484.2751
 Red. masses --      6.0976                 2.1640                 1.8805
 Frc consts  --      6.9658                 2.6468                 2.4409
 IR Inten    --     26.1686               313.3356               219.3072

                     34                     35                     36
                      A                      A                      A
 Frequencies --   1496.2754              1538.3512              1613.6044
 Red. masses --      2.2723                 2.6469                 1.3911
 Frc consts  --      2.9974                 3.6906                 2.1340
 IR Inten    --     60.8554                95.3413                20.4577

                     37                     38                     39
                      A                      A                      A
 Frequencies --   1644.3723              1671.2945              1680.5848
 Red. masses --      3.5534                 1.0430                 4.1801
 Frc consts  --      5.6611                 1.7166                 6.9560
 IR Inten    --      9.5456                38.8813                63.7322

                     40                     41                     42
                      A                      A                      A
 Frequencies --   1747.7495              2549.3323              3208.0254
 Red. masses --      4.6023                 1.1008                 1.0919
 Frc consts  --      8.2829                 4.2149                 6.6209
 IR Inten    --    242.0103               722.9310                 0.5382

                     43                     44                     45
                      A                      A                      A
 Frequencies --   3227.8769              3238.2948              3247.6034
 Red. masses --      1.0905                 1.0950                 1.0965
 Frc consts  --      6.6941                 6.7658                 6.8137
 IR Inten    --      0.1003                 1.2771                 3.1429

                     46                     47                     48
                      A                      A                      A
 Frequencies --   3457.7464              3526.8852              3759.3505
 Red. masses --      1.0521                 1.0945                 1.0651
 Frc consts  --      7.4111                 8.0214                 8.8687
 IR Inten    --     97.7796               101.7457               223.1551

 - Thermochemistry -
 -------------------
 Temperature   298.150 Kelvin.  Pressure   1.00000 Atm.
 Atom     1 has atomic number  6 and mass  12.00000

 Molecular mass:   138.05550 amu.
 Principal axes and moments of inertia in atomic units:
                           1         2         3
     Eigenvalues --   801.233971492.496662283.84026
           X            1.00000  -0.00183  -0.00000
           Y            0.00183   1.00000  -0.00001
           Z            0.00000   0.00001   1.00000
 This molecule is an asymmetric top.
 Rotational symmetry number  1.
 Warning -- assumption of classical behavior for rotation
           may cause significant error
 Rotational temperatures (Kelvin)      0.10810     0.05803     0.03792
 Rotational constants (GHZ):           2.25245     1.20921     0.79022
 Zero-point vibrational energy     385178.1 (Joules/Mol)
                                   92.05977 (Kcal/Mol)
 Warning -- explicit consideration of  11 degrees of freedom as
           vibrations may cause significant error
 Vibrational temperatures:    131.58   189.17   333.91   390.42   507.74
          (Kelvin)            538.77   607.23   625.25   704.46   722.68
                              810.74   902.88   950.71  1012.18  1087.18
                             1095.53  1164.82  1196.80  1293.66  1428.36
                             1483.02  1532.19  1558.87  1622.24  1625.38
                             1701.29  1726.16  1736.87  1751.95  1899.88
                             2003.42  2073.01  2135.54  2152.80  2213.34
                             2321.61  2365.88  2404.62  2417.98  2514.62
                             3667.92  4615.63  4644.19  4659.18  4672.57
                             4974.92  5074.39  5408.86

 Zero-point correction=                           0.146707 (Hartree/Particle)
 Thermal correction to Energy=                    0.154886
 Thermal correction to Enthalpy=                  0.155830
 Thermal correction to Gibbs Free Energy=         0.113705
 Sum of electronic and zero-point Energies=           -476.247280
 Sum of electronic and thermal Energies=              -476.239101
 Sum of electronic and thermal Enthalpies=            -476.238157
 Sum of electronic and thermal Free Energies=         -476.280282

                     E (Thermal)             CV                S
                      KCal/Mol        Cal/Mol-Kelvin    Cal/Mol-Kelvin
 Total                   97.193             32.208             88.660
 Electronic               0.000              0.000              0.000
 Translational            0.889              2.981             40.679
 Rotational               0.889              2.981             29.392
 Vibrational             95.415             26.247             18.589
 Vibration     1          0.602              1.955              3.629
 Vibration     2          0.612              1.922              2.924
 Vibration     3          0.653              1.792              1.863
 Vibration     4          0.675              1.726              1.588
 Vibration     5          0.729              1.569              1.153
 Vibration     6          0.746              1.524              1.061
 Vibration     7          0.784              1.422              0.885
 Vibration     8          0.795              1.395              0.844
 Vibration     9          0.845              1.273              0.685
 Vibration    10          0.858              1.245              0.652
 Vibration    11          0.919              1.110              0.517

 Optimization completed.
    -- Stationary point found.
 Normal termination of Gaussian 09 at Sun Dec 15 22:31:13 2024.
