 Gaussian 09, Revision E.01,
 Gaussian 09:  ES64L-G09RevE.01 30-Nov-2015

 -----------------------------
 # opt freq b3pw91/6-31+g(d,p)
 -----------------------------

 ----------
 [No Title]
 ----------
 Symbolic Z-matrix:
 Charge =  0 Multiplicity = 1

 SCF Done:  E(RB3PW91) =  -476.038745108     A.U. after   15 cycles
 SCF Done:  E(RB3PW91) =  -476.038915429     A.U. after   12 cycles
 SCF Done:  E(RB3PW91) =  -476.038934335     A.U. after   12 cycles
 SCF Done:  E(RB3PW91) =  -476.038956686     A.U. after   10 cycles
 SCF Done:  E(RB3PW91) =  -476.038956617     A.U. after   10 cycles
 SCF Done:  E(RB3PW91) =  -476.038956870     A.U. after    9 cycles
 Optimization completed.
    -- Stationary point found.
 Normal termination of Gaussian 09 at Sun Dec 15 21:58:30 2024.

 ----------------------------------------------------------------------
 #N Geom=AllCheck Guess=TCheck SCRF=Check GenChk RB3PW91/6-31+G(d,p) Fr
 eq
 ----------------------------------------------------------------------

 Structure from the checkpoint file:  "B3PWAnthranilic.chk"
 ----------
 [No Title]
 ----------
 Charge =  0 Multiplicity = 1

                         Standard orientation:
 ---------------------------------------------------------------------
 Center     Atomic      Atomic             Coordinates (Angstroms)
 Number     Number       Type             X           Y           Z
 ---------------------------------------------------------------------
      1          6           0       -1.859697   -1.516973   -0.000004
      2          6           0       -2.584813   -0.315109    0.000059
      3          6           0       -1.937868    0.906384    0.000058
      4          6           0       -0.525849    0.987607   -0.000008
      5          6           0        0.211799   -0.232130   -0.000075
      6          6           0       -0.477634   -1.460482   -0.000066
      7          6           0        1.674740   -0.205827   -0.000148
      8          8           0        2.250672   -1.430933    0.000055
      9          7           0        0.085220    2.199604   -0.000013
     10          8           0        2.375451    0.802569    0.000072
     11          1           0       -2.372897   -2.472953   -0.000002
     12          1           0       -3.671573   -0.337802    0.000110
     13          1           0       -2.513443    1.828883    0.000106
     14          1           0        0.106448   -2.374294   -0.000113
     15          1           0        3.207233   -1.274077    0.000176
     16          1           0        1.096585    2.236467   -0.000101
     17          1           0       -0.461947    3.042642    0.000002
 ---------------------------------------------------------------------

 SCF Done:  E(RB3PW91) =  -476.038956870     A.U. after    1 cycles

 The electronic state is 1-A.
 Alpha  occ. eigenvalues --  -19.19694 -19.14137 -14.34611 -10.31643 -10.24377
 Alpha  occ. eigenvalues --  -10.19615 -10.19570 -10.19265 -10.18633 -10.17893
 Alpha  occ. eigenvalues --   -1.12155  -1.02660  -0.94310  -0.85667  -0.78078
 Alpha  occ. eigenvalues --   -0.74471  -0.67076  -0.63097  -0.60210  -0.54419
 Alpha  occ. eigenvalues --   -0.53155  -0.51526  -0.49715  -0.46309  -0.46153
 Alpha  occ. eigenvalues --   -0.44478  -0.43527  -0.40894  -0.39735  -0.37783
 Alpha  occ. eigenvalues --   -0.35937  -0.33438  -0.32512  -0.29002  -0.27011
 Alpha  occ. eigenvalues --   -0.21772
 Alpha virt. eigenvalues --   -0.05546  -0.00441   0.00907   0.01860   0.02694
 Alpha virt. eigenvalues --    0.04196   0.04277   0.05543   0.06413   0.06468
 Alpha virt. eigenvalues --    0.07908   0.08248   0.09269   0.10456   0.11035

 Mulliken charges:
               1
     1  C   -0.073414
     2  C   -0.540580
     3  C    0.610546
     4  C   -1.296970
     5  C    1.189503
     6  C   -0.708710
     7  C    0.738667
     8  O   -0.468268
     9  N   -0.609759
    10  O   -0.520996
    11  H    0.151657
    12  H    0.153151
    13  H    0.134131
    14  H    0.175257
    15  H    0.387723
    16  H    0.361819
    17  H    0.316243
 Sum of Mulliken charges =  -0.00000

 Dipole moment (field-independent basis, Debye):
    X=             -1.1403    Y=              0.5608    Z=             -0.0002  Tot=              1.2708
 Quadrupole moment (field-independent basis, Debye-Ang):
   XX=            -51.6672   YY=            -49.8069   ZZ=            -62.0678
   XY=             -5.2849   XZ=             -0.0005   YZ=             -0.0004

  Exact polarizability: 127.115   4.102 114.196  -0.000   0.003  52.627
 Approx polarizability: 193.347  11.889 192.721  -0.002   0.003  75.411

 ******    1 imaginary frequencies (negative Signs) ******

                      1                      2                      3
                      A                      A                      A
 Frequencies --    -33.2685                93.6333               187.5013
 Red. masses --      3.1817                 4.7454                 1.5624
 Frc consts  --      0.0021                 0.0245                 0.0324
 IR Inten    --     78.6218                15.8060                86.8364

                      4                      5                      6
                      A                      A                      A
 Frequencies --    236.8821               253.5916               367.6696
 Red. masses --      4.2441                 5.7377                 4.9590
 Frc consts  --      0.1403                 0.2174                 0.3950
 IR Inten    --      6.2903                 1.0518                 8.4982

                      7                      8                      9
                      A                      A                      A
 Frequencies --    418.2435               426.7576               511.2251
 Red. masses --      5.9207                 3.0392                 4.2461
 Frc consts  --      0.6102                 0.3261                 0.6538
 IR Inten    --      1.0214                 5.8782                 5.0451

                     10                     11                     12
                      A                      A                      A
 Frequencies --    537.1744               567.6411               581.2900
 Red. masses --      2.8748                 6.8603                 1.1962
 Frc consts  --      0.4888                 1.3024                 0.2381
 IR Inten    --     13.1407                 1.1889                93.7172

                     13                     14                     15
                      A                      A                      A
 Frequencies --    634.2361               647.9411               716.8284
 Red. masses --      1.0379                 5.2638                 3.1574
 Frc consts  --      0.2460                 1.3020                 0.9559
 IR Inten    --     23.3750                52.1737                44.8472

                     16                     17                     18
                      A                      A                      A
 Frequencies --    753.7392               762.9088               805.3683
 Red. masses --      4.1495                 1.4888                 3.5027
 Frc consts  --      1.3890                 0.5105                 1.3386
 IR Inten    --     15.2752                60.6954                 2.5661

                     19                     20                     21
                      A                      A                      A
 Frequencies --    859.2553               866.2064               969.6502
 Red. masses --      1.7240                 5.3142                 1.3566
 Frc consts  --      0.7499                 2.3493                 0.7515
 IR Inten    --      3.5015                 6.0354                 0.6676

                     22                     23                     24
                      A                      A                      A
 Frequencies --    989.7854              1041.0739              1078.4644
 Red. masses --      1.2984                 1.9963                 1.8894
 Frc consts  --      0.7494                 1.2748                 1.2947
 IR Inten    --      0.0091                 4.0663                11.6412

                     25                     26                     27
                      A                      A                      A
 Frequencies --   1103.9081              1177.2190              1186.2282
 Red. masses --      3.8302                 1.3400                 1.1666
 Frc consts  --      2.7500                 1.0941                 0.9672
 IR Inten    --    113.2826                86.6544                80.5113

                     28                     29                     30
                      A                      A                      A
 Frequencies --   1206.2815              1312.3652              1350.9063
 Red. masses --      1.5610                 1.7238                 2.1658
 Frc consts  --      1.3383                 1.7492                 2.3287
 IR Inten    --    204.8843                 1.7344                48.6193

                     31                     32                     33
                      A                      A                      A
 Frequencies --   1385.5981              1420.8621              1495.0680
 Red. masses --      3.1395                 5.9015                 2.6521
 Frc consts  --      3.5513                 7.0196                 3.4928
 IR Inten    --    126.6881                47.4927                 6.5031

                     34                     35                     36
                      A                      A                      A
 Frequencies --   1525.0802              1602.8745              1632.7498
 Red. masses --      2.3053                 2.3335                 2.7056
 Frc consts  --      3.1591                 3.5322                 4.2496
 IR Inten    --     38.1900               125.2037               187.6773

                     37                     38                     39
                      A                      A                      A
 Frequencies --   1678.1285              1764.3190              3186.3513
 Red. masses --      4.7818                 7.3413                 1.0870
 Frc consts  --      7.9341                13.4641                 6.5025
 IR Inten    --    132.4363               423.3964                 7.8422

                     40                     41                     42
                      A                      A                      A
 Frequencies --   3203.8105              3220.5033              3237.8736
 Red. masses --      1.0923                 1.0918                 1.0953
 Frc consts  --      6.6060                 6.6719                 6.7654
 IR Inten    --     15.5889                 7.7819                 5.1181

                     43                     44                     45
                      A                      A                      A
 Frequencies --   3563.9549              3752.1501              3802.9242
 Red. masses --      1.0520                 1.0994                 1.0645
 Frc consts  --      7.8729                 9.1191                 9.0706
 IR Inten    --    116.0535                80.2533               104.0322

 - Thermochemistry -
 -------------------
 Temperature   298.150 Kelvin.  Pressure   1.00000 Atm.
 Atom     1 has atomic number  6 and mass  12.00000

 Molecular mass:   137.04768 amu.
 Principal axes and moments of inertia in atomic units:
                           1         2         3
     Eigenvalues --   782.974441484.337062267.31150
           X            0.99999  -0.00409   0.00000
           Y            0.00409   0.99999  -0.00001
           Z           -0.00000   0.00001   1.00000
 This molecule is an asymmetric top.
 Rotational symmetry number  1.
 Warning -- assumption of classical behavior for rotation
           may cause significant error
 Rotational temperatures (Kelvin)      0.11062     0.05835     0.03820
 Rotational constants (GHZ):           2.30498     1.21586     0.79598
    1 imaginary frequencies ignored.
 Zero-point vibrational energy     347612.2 (Joules/Mol)
                                   83.08131 (Kcal/Mol)
 Warning -- explicit consideration of  11 degrees of freedom as
           vibrations may cause significant error
 Vibrational temperatures:    134.72   269.77   340.82   364.86   528.99
          (Kelvin)            601.76   614.01   735.54   772.87   816.71
                              836.35   912.52   932.24  1031.35  1084.46
                             1097.65  1158.74  1236.28  1246.28  1395.11
                             1424.08  1497.87  1551.67  1588.28  1693.75
                             1706.72  1735.57  1888.20  1943.65  1993.56
                             2044.30  2151.07  2194.25  2306.18  2349.16
                             2414.45  2538.46  4584.44  4609.56  4633.58
                             4658.57  5127.73  5398.50  5471.55

 Zero-point correction=                           0.132398 (Hartree/Particle)
 Thermal correction to Energy=                    0.140263
 Thermal correction to Enthalpy=                  0.141207
 Thermal correction to Gibbs Free Energy=         0.099789
 Sum of electronic and zero-point Energies=           -475.906558
 Sum of electronic and thermal Energies=              -475.898694
 Sum of electronic and thermal Enthalpies=            -475.897749
 Sum of electronic and thermal Free Energies=         -475.939168

                     E (Thermal)             CV                S
                      KCal/Mol        Cal/Mol-Kelvin    Cal/Mol-Kelvin
 Total                   88.016             31.276             87.172
 Electronic               0.000              0.000              0.000
 Translational            0.889              2.981             40.657
 Rotational               0.889              2.981             29.356
 Vibrational             86.239             25.315             17.159
 Vibration     1          0.603              1.954              3.583
 Vibration     2          0.632              1.857              2.252
 Vibration     3          0.656              1.784              1.826
 Vibration     4          0.665              1.757              1.705
 Vibration     5          0.740              1.539              1.089
 Vibration     6          0.781              1.431              0.898
 Vibration     7          0.788              1.412              0.869
 Vibration     8          0.866              1.225              0.631
 Vibration     9          0.892              1.168              0.571
 Vibration    10          0.924              1.101              0.509
 Vibration    11          0.938              1.072              0.483

 Optimization completed.
    -- Stationary point found.
 Normal termination of Gaussian 09 at Sun Dec 15 21:59:09 2024.
