 Gaussian 09, Revision E.01,
 Gaussian 09:  ES64L-G09RevE.01 30-Nov-2015

 --------------------------------
 # opt freq cam-b3lyp/6-31+g(d,p)
 --------------------------------

 ----------
 [No Title]
 ----------
 Symbolic Z-matrix:
 Charge =  1 Multiplicity = 1

 SCF Done:  E(RCAM-B3LYP) =  -476.347506110     A.U. after   16 cycles
 SCF Done:  E(RCAM-B3LYP) =  -476.347808666     A.U. after   12 cycles
 SCF Done:  E(RCAM-B3LYP) =  -476.347609561     A.U. after   13 cycles
 SCF Done:  E(RCAM-B3LYP) =  -476.347878562     A.U. after    9 cycles
 SCF Done:  E(RCAM-B3LYP) =  -476.347901986     A.U. after   11 cycles
 SCF Done:  E(RCAM-B3LYP) =  -476.347902485     A.U. after   10 cycles
 SCF Done:  E(RCAM-B3LYP) =  -476.347902571     A.U. after    9 cycles
 SCF Done:  E(RCAM-B3LYP) =  -476.347902536     A.U. after    9 cycles
 Optimization completed.
    -- Stationary point found.
 Normal termination of Gaussian 09 at Sat Jun 22 16:41:59 2024.

 ----------------------------------------------------------------------
 #N Geom=AllCheck Guess=TCheck SCRF=Check GenChk RCAM-B3LYP/6-31+G(d,p)
  Freq
 ----------------------------------------------------------------------

 Structure from the checkpoint file:  "camb3lypAnthranilicyang.chk"
 ----------
 [No Title]
 ----------
 Charge =  1 Multiplicity = 1

                         Standard orientation:
 ---------------------------------------------------------------------
 Center     Atomic      Atomic             Coordinates (Angstroms)
 Number     Number       Type             X           Y           Z
 ---------------------------------------------------------------------
      1          6           0        1.929858   -1.471412    0.000118
      2          6           0        2.611496   -0.259718   -0.000014
      3          6           0        1.906949    0.943184   -0.000039
      4          6           0        0.526666    0.907719    0.000067
      5          6           0       -0.184119   -0.300003    0.000140
      6          6           0        0.540060   -1.492930    0.000188
      7          6           0       -1.668230   -0.300665    0.000050
      8          8           0       -2.215221   -1.496928    0.000064
      9          7           0       -0.234470    2.173075    0.000199
     10          8           0       -2.338311    0.731123   -0.000712
     11          1           0        2.481407   -2.404642    0.000138
     12          1           0        3.695687   -0.242677   -0.000076
     13          1           0        2.438566    1.890196   -0.000088
     14          1           0        0.003882   -2.434292    0.000242
     15          1           0       -3.185625   -1.416390   -0.000313
     16          1           0       -0.036635    2.740188   -0.829260
     17          1           0       -1.267775    1.885144    0.000674
     18          1           0       -0.036047    2.740344    0.829411
 ---------------------------------------------------------------------

 SCF Done:  E(RCAM-B3LYP) =  -476.347902536     A.U. after    1 cycles

 The electronic state is 1-A.
 Alpha  occ. eigenvalues --  -19.44917 -19.40402 -14.70111 -10.58889 -10.50725
 Alpha  occ. eigenvalues --  -10.46528 -10.45019 -10.44336 -10.44194 -10.43312
 Alpha  occ. eigenvalues --   -1.37844  -1.29016  -1.25779  -1.12334  -1.03157
 Alpha  occ. eigenvalues --   -1.00684  -0.91841  -0.88592  -0.85499  -0.82829
 Alpha  occ. eigenvalues --   -0.81207  -0.78546  -0.75487  -0.73975  -0.70648
 Alpha  occ. eigenvalues --   -0.69784  -0.68417  -0.67616  -0.63703  -0.61504
 Alpha  occ. eigenvalues --   -0.60479  -0.59041  -0.56637  -0.53392  -0.48962
 Alpha  occ. eigenvalues --   -0.48832
 Alpha virt. eigenvalues --   -0.18197  -0.14313  -0.13459  -0.08802  -0.08152
 Alpha virt. eigenvalues --   -0.07171  -0.06564  -0.06343  -0.05318  -0.04542
 Alpha virt. eigenvalues --   -0.03198  -0.02971  -0.01936  -0.01438  -0.00523

 Mulliken charges:
               1
     1  C    0.011703
     2  C   -0.353505
     3  C    0.487486
     4  C   -0.956993
     5  C    1.012452
     6  C   -0.810478
     7  C    0.788232
     8  O   -0.445461
     9  N   -0.684023
    10  O   -0.485403
    11  H    0.184170
    12  H    0.185059
    13  H    0.172656
    14  H    0.200439
    15  H    0.424013
    16  H    0.409693
    17  H    0.450266
    18  H    0.409694
 Sum of Mulliken charges =   1.00000

 Dipole moment (field-independent basis, Debye):
    X=              1.1091    Y=              4.2725    Z=              0.0015  Tot=              4.4141
 Quadrupole moment (field-independent basis, Debye-Ang):
   XX=            -36.6597   YY=            -29.1107   ZZ=            -56.6618
   XY=              3.7091   XZ=             -0.0019   YZ=              0.0038

  Exact polarizability: 113.570  -0.691 100.002   0.003  -0.004  48.297
 Approx polarizability: 133.544  -1.143 128.632   0.003  -0.008  61.881

                      1                      2                      3
                      A                      A                      A
 Frequencies --     90.3674               134.4573               234.9819
 Red. masses --      6.0553                 3.6852                 3.1906
 Frc consts  --      0.0291                 0.0393                 0.1038
 IR Inten    --      6.6499                 1.7894                19.7289

                      4                      5                      6
                      A                      A                      A
 Frequencies --    274.2091               334.4393               374.8194
 Red. masses --      5.2066                 1.1868                 3.8722
 Frc consts  --      0.2307                 0.0782                 0.3205
 IR Inten    --     10.0919                 0.3775                68.8218

                      7                      8                      9
                      A                      A                      A
 Frequencies --    431.1598               434.7681               498.1546
 Red. masses --      3.0104                 8.0293                 3.1363
 Frc consts  --      0.3297                 0.8942                 0.4586
 IR Inten    --      9.7598                 2.7986                 5.1587

                     10                     11                     12
                      A                      A                      A
 Frequencies --    506.5541               570.6345               631.2568
 Red. masses --      4.5711                 6.2507                 1.2842
 Frc consts  --      0.6911                 1.1992                 0.3015
 IR Inten    --      4.4814                 3.0047                72.7334

                     13                     14                     15
                      A                      A                      A
 Frequencies --    667.5904               714.5880               761.5417
 Red. masses --      5.3057                 2.9813                 3.9605
 Frc consts  --      1.3932                 0.8969                 1.3533
 IR Inten    --     86.3296                50.5636                49.9431

                     16                     17                     18
                      A                      A                      A
 Frequencies --    775.0021               822.9544               840.0840
 Red. masses --      1.6065                 2.5423                 5.2019
 Frc consts  --      0.5685                 1.0144                 2.1630
 IR Inten    --     94.1707                 0.5484                13.7503

                     19                     20                     21
                      A                      A                      A
 Frequencies --    918.1323              1014.2146              1054.0909
 Red. masses --      1.3676                 1.3718                 1.3641
 Frc consts  --      0.6792                 0.8314                 0.8930
 IR Inten    --      0.0368                 0.4994                 0.0009

                     22                     23                     24
                      A                      A                      A
 Frequencies --   1074.7715              1091.7057              1131.1130
 Red. masses --      2.2162                 2.0135                 1.3310
 Frc consts  --      1.5083                 1.4139                 1.0033
 IR Inten    --     13.0371                23.2606                 9.3554

                     25                     26                     27
                      A                      A                      A
 Frequencies --   1136.3696              1192.9979              1206.8561
 Red. masses --      2.1973                 1.6724                 1.1350
 Frc consts  --      1.6718                 1.4024                 0.9740
 IR Inten    --     61.9834                 2.2092                 3.2507

                     28                     29                     30
                      A                      A                      A
 Frequencies --   1216.9056              1228.0527              1334.2366
 Red. masses --      1.7522                 2.5081                 1.5661
 Frc consts  --      1.5288                 2.2286                 1.6426
 IR Inten    --    196.7317                14.7260                 1.8266

                     31                     32                     33
                      A                      A                      A
 Frequencies --   1372.0494              1454.5093              1504.9678
 Red. masses --      4.6647                 2.5018                 1.7599
 Frc consts  --      5.1738                 3.1184                 2.3485
 IR Inten    --     29.4576               297.0999               197.3148

                     34                     35                     36
                      A                      A                      A
 Frequencies --   1516.2266              1559.1660              1625.8710
 Red. masses --      2.0356                 2.7229                 1.2255
 Frc consts  --      2.7573                 3.9000                 1.9087
 IR Inten    --     95.7924                84.2970                22.3834

                     37                     38                     39
                      A                      A                      A
 Frequencies --   1668.9336              1682.6274              1705.5523
 Red. masses --      4.5469                 1.0438                 4.8656
 Frc consts  --      7.4618                 1.7413                 8.3391
 IR Inten    --      3.6758                41.4466                60.2987

                     40                     41                     42
                      A                      A                      A
 Frequencies --   1772.6949              2684.8322              3218.1928
 Red. masses --      5.4813                 1.0929                 1.0927
 Frc consts  --     10.1485                 4.6414                 6.6677
 IR Inten    --    288.0150               690.3874                 0.5721

                     43                     44                     45
                      A                      A                      A
 Frequencies --   3239.4309              3249.9027              3259.7967
 Red. masses --      1.0913                 1.0958                 1.0966
 Frc consts  --      6.7476                 6.8189                 6.8657
 IR Inten    --      0.1036                 1.6943                 4.1500

                     46                     47                     48
                      A                      A                      A
 Frequencies --   3461.5256              3525.3981              3765.1978
 Red. masses --      1.0528                 1.0946                 1.0652
 Frc consts  --      7.4321                 8.0156                 8.8971
 IR Inten    --    111.5146               110.0903               238.0593

 - Thermochemistry -
 -------------------
 Temperature   298.150 Kelvin.  Pressure   1.00000 Atm.
 Atom     1 has atomic number  6 and mass  12.00000

 Molecular mass:   138.05550 amu.
 Principal axes and moments of inertia in atomic units:
                           1         2         3
     Eigenvalues --   801.032881487.697312278.82858
           X            1.00000  -0.00129  -0.00006
           Y            0.00129   1.00000   0.00004
           Z            0.00006  -0.00004   1.00000
 This molecule is an asymmetric top.
 Rotational symmetry number  1.
 Warning -- assumption of classical behavior for rotation
           may cause significant error
 Rotational temperatures (Kelvin)      0.10813     0.05822     0.03801
 Rotational constants (GHZ):           2.25302     1.21311     0.79196
 Zero-point vibrational energy     388570.3 (Joules/Mol)
                                   92.87053 (Kcal/Mol)
 Warning -- explicit consideration of  11 degrees of freedom as
           vibrations may cause significant error
 Vibrational temperatures:    130.02   193.45   338.09   394.53   481.18
          (Kelvin)            539.28   620.34   625.53   716.73   728.82
                              821.01   908.24   960.51  1028.13  1095.69
                             1115.05  1184.05  1208.69  1320.99  1459.23
                             1516.60  1546.35  1570.72  1627.42  1634.98
                             1716.46  1736.39  1750.85  1766.89  1919.67
                             1974.07  2092.71  2165.31  2181.51  2243.29
                             2339.26  2401.22  2420.92  2453.91  2550.51
                             3862.87  4630.26  4660.81  4675.88  4690.11
                             4980.36  5072.26  5417.27

 Zero-point correction=                           0.147999 (Hartree/Particle)
 Thermal correction to Energy=                    0.156126
 Thermal correction to Enthalpy=                  0.157071
 Thermal correction to Gibbs Free Energy=         0.115024
 Sum of electronic and zero-point Energies=           -476.199904
 Sum of electronic and thermal Energies=              -476.191776
 Sum of electronic and thermal Enthalpies=            -476.190832
 Sum of electronic and thermal Free Energies=         -476.232879

                     E (Thermal)             CV                S
                      KCal/Mol        Cal/Mol-Kelvin    Cal/Mol-Kelvin
 Total                   97.971             31.906             88.495
 Electronic               0.000              0.000              0.000
 Translational            0.889              2.981             40.679
 Rotational               0.889              2.981             29.386
 Vibrational             96.193             25.944             18.429
 Vibration     1          0.602              1.956              3.652
 Vibration     2          0.613              1.919              2.881
 Vibration     3          0.655              1.787              1.841
 Vibration     4          0.677              1.721              1.570
 Vibration     5          0.716              1.607              1.239
 Vibration     6          0.746              1.524              1.060
 Vibration     7          0.792              1.402              0.855
 Vibration     8          0.795              1.394              0.843
 Vibration     9          0.854              1.254              0.663
 Vibration    10          0.862              1.235              0.642
 Vibration    11          0.927              1.095              0.503

 Optimization completed.
    -- Stationary point found.
 Normal termination of Gaussian 09 at Sat Jun 22 16:43:29 2024.
