 Gaussian 09, Revision E.01,
 Gaussian 09:  ES64L-G09RevE.01 30-Nov-2015

 --------------------------------
 # opt freq cam-b3lyp/6-31+g(d,p)
 --------------------------------

 ----------
 [No Title]
 ----------
 Symbolic Z-matrix:
 Charge =  0 Multiplicity = 1

 SCF Done:  E(RCAM-B3LYP) =  -475.996865099     A.U. after   16 cycles
 SCF Done:  E(RCAM-B3LYP) =  -475.997233817     A.U. after   13 cycles
 SCF Done:  E(RCAM-B3LYP) =  -475.997227655     A.U. after   13 cycles
 SCF Done:  E(RCAM-B3LYP) =  -475.997252391     A.U. after   12 cycles
 SCF Done:  E(RCAM-B3LYP) =  -475.997258782     A.U. after   11 cycles
 SCF Done:  E(RCAM-B3LYP) =  -475.997259786     A.U. after   10 cycles
 Optimization completed.
    -- Stationary point found.
 Normal termination of Gaussian 09 at Sat Jun 22 16:40:57 2024.

 ----------------------------------------------------------------------
 #N Geom=AllCheck Guess=TCheck SCRF=Check GenChk RCAM-B3LYP/6-31+G(d,p)
  Freq
 ----------------------------------------------------------------------

 Structure from the checkpoint file:  "camb3lypAnthranilic.chk"
 ----------
 [No Title]
 ----------
 Charge =  0 Multiplicity = 1

                         Standard orientation:
 ---------------------------------------------------------------------
 Center     Atomic      Atomic             Coordinates (Angstroms)
 Number     Number       Type             X           Y           Z
 ---------------------------------------------------------------------
      1          6           0       -1.852098   -1.517822    0.000015
      2          6           0       -2.578196   -0.319295    0.000018
      3          6           0       -1.935600    0.900016    0.000013
      4          6           0       -0.526428    0.983390    0.000005
      5          6           0        0.209602   -0.229345    0.000006
      6          6           0       -0.474189   -1.457815    0.000009
      7          6           0        1.673464   -0.203124   -0.000001
      8          8           0        2.248872   -1.425065    0.000014
      9          7           0        0.077520    2.200892    0.000004
     10          8           0        2.372084    0.801204   -0.000062
     11          1           0       -2.362708   -2.473832    0.000016
     12          1           0       -3.663774   -0.344691    0.000022
     13          1           0       -2.511165    1.821109    0.000014
     14          1           0        0.112352   -2.368624    0.000008
     15          1           0        3.206965   -1.275533   -0.000020
     16          1           0        1.086767    2.251688   -0.000047
     17          1           0       -0.478054    3.038500   -0.000025
 ---------------------------------------------------------------------

 SCF Done:  E(RCAM-B3LYP) =  -475.997259786     A.U. after    1 cycles

 The electronic state is 1-A.
 Alpha  occ. eigenvalues --  -19.28118 -19.22572 -14.42591 -10.40920 -10.33027
 Alpha  occ. eigenvalues --  -10.28141 -10.27939 -10.27826 -10.27013 -10.26275
 Alpha  occ. eigenvalues --   -1.20206  -1.10505  -1.01973  -0.93649  -0.85919
 Alpha  occ. eigenvalues --   -0.82125  -0.74452  -0.70387  -0.67299  -0.61388
 Alpha  occ. eigenvalues --   -0.59862  -0.58304  -0.56691  -0.53447  -0.53107
 Alpha  occ. eigenvalues --   -0.51133  -0.50133  -0.47525  -0.46498  -0.44156
 Alpha  occ. eigenvalues --   -0.42216  -0.39886  -0.38710  -0.35485  -0.32237
 Alpha  occ. eigenvalues --   -0.26660
 Alpha virt. eigenvalues --   -0.00886   0.02718   0.03638   0.04089   0.04520
 Alpha virt. eigenvalues --    0.05872   0.07056   0.07704   0.08206   0.09382
 Alpha virt. eigenvalues --    0.09479   0.09740   0.10766   0.12177   0.12736

 Mulliken charges:
               1
     1  C   -0.045284
     2  C   -0.426057
     3  C    0.369324
     4  C   -0.852397
     5  C    0.936828
     6  C   -0.718093
     7  C    0.832266
     8  O   -0.500232
     9  N   -0.660486
    10  O   -0.538018
    11  H    0.132091
    12  H    0.134419
    13  H    0.117771
    14  H    0.160446
    15  H    0.392380
    16  H    0.356721
    17  H    0.308323
 Sum of Mulliken charges =   0.00000

 Dipole moment (field-independent basis, Debye):
    X=             -1.1645    Y=              0.4392    Z=             -0.0001  Tot=              1.2445
 Quadrupole moment (field-independent basis, Debye-Ang):
   XX=            -52.4132   YY=            -51.0351   ZZ=            -62.5782
   XY=             -5.4229   XZ=              0.0000   YZ=             -0.0001

  Exact polarizability: 123.924   4.188 112.899   0.000  -0.000  53.359
 Approx polarizability: 141.178   8.212 142.785  -0.001  -0.001  66.191

                      1                      2                      3
                      A                      A                      A
 Frequencies --     63.7327               104.3656               200.6428
 Red. masses --      6.6018                 3.5111                 1.3380
 Frc consts  --      0.0158                 0.0225                 0.0317
 IR Inten    --     32.0447                37.9079               122.2762

                      4                      5                      6
                      A                      A                      A
 Frequencies --    241.2439               258.7130               374.0753
 Red. masses --      4.5162                 5.7800                 5.1542
 Frc consts  --      0.1549                 0.2279                 0.4249
 IR Inten    --      3.7033                 0.9781                 7.6611

                      7                      8                      9
                      A                      A                      A
 Frequencies --    422.6091               436.2038               517.7932
 Red. masses --      5.8657                 2.9964                 4.1733
 Frc consts  --      0.6172                 0.3359                 0.6592
 IR Inten    --      0.8805                 6.5697                 4.7262

                     10                     11                     12
                      A                      A                      A
 Frequencies --    547.6208               576.0068               587.8669
 Red. masses --      2.8101                 6.8347                 1.2030
 Frc consts  --      0.4965                 1.3361                 0.2450
 IR Inten    --     10.5319                 1.5635               100.4658

                     13                     14                     15
                      A                      A                      A
 Frequencies --    621.2537               656.8805               730.6974
 Red. masses --      1.0412                 5.2340                 2.9308
 Frc consts  --      0.2368                 1.3306                 0.9219
 IR Inten    --     18.2556                55.2785                52.6802

                     16                     17                     18
                      A                      A                      A
 Frequencies --    762.9145               779.7698               821.5697
 Red. masses --      4.1176                 1.5043                 3.3415
 Frc consts  --      1.4120                 0.5389                 1.3289
 IR Inten    --     17.2290                58.2415                 4.1841

                     19                     20                     21
                      A                      A                      A
 Frequencies --    876.1261               882.8930               996.9566
 Red. masses --      5.2627                 1.7950                 1.3622
 Frc consts  --      2.3801                 0.8244                 0.7977
 IR Inten    --      7.4109                 4.8843                 0.6185

                     22                     23                     24
                      A                      A                      A
 Frequencies --   1017.4724              1050.6566              1089.1885
 Red. masses --      1.3241                 1.9768                 1.8380
 Frc consts  --      0.8076                 1.2857                 1.2847
 IR Inten    --      0.0574                 6.9134                10.3554

                     25                     26                     27
                      A                      A                      A
 Frequencies --   1117.9158              1187.8501              1192.4373
 Red. masses --      3.8855                 1.3094                 1.2727
 Frc consts  --      2.8610                 1.0885                 1.0663
 IR Inten    --     97.8345               171.5157                46.3661

                     28                     29                     30
                      A                      A                      A
 Frequencies --   1215.6835              1321.6424              1348.7004
 Red. masses --      1.5096                 2.0614                 2.0380
 Frc consts  --      1.3145                 2.1215                 2.1842
 IR Inten    --    197.6190                 9.0894                57.3027

                     31                     32                     33
                      A                      A                      A
 Frequencies --   1388.1346              1422.7534              1511.7009
 Red. masses --      2.8531                 4.8683                 2.6646
 Frc consts  --      3.2391                 5.8061                 3.5877
 IR Inten    --     61.6121               110.4560                12.9769

                     34                     35                     36
                      A                      A                      A
 Frequencies --   1542.5179              1624.1955              1655.4802
 Red. masses --      2.3429                 1.9763                 2.9535
 Frc consts  --      3.2844                 3.0718                 4.7692
 IR Inten    --     39.0309               148.6724               188.1747

                     37                     38                     39
                      A                      A                      A
 Frequencies --   1700.2552              1789.7406              3199.6272
 Red. masses --      5.1423                 7.8557                 1.0878
 Frc consts  --      8.7586                14.8257                 6.5616
 IR Inten    --    111.8863               472.0593                 7.0915

                     40                     41                     42
                      A                      A                      A
 Frequencies --   3216.9968              3233.6498              3251.5913
 Red. masses --      1.0930                 1.0926                 1.0955
 Frc consts  --      6.6648                 6.7310                 6.8241
 IR Inten    --     13.2857                 6.3778                 3.7257

                     43                     44                     45
                      A                      A                      A
 Frequencies --   3592.8642              3760.6221              3812.2161
 Red. masses --      1.0501                 1.1013                 1.0646
 Frc consts  --      7.9864                 9.1767                 9.1160
 IR Inten    --    118.5246                86.2165               119.9161

 - Thermochemistry -
 -------------------
 Temperature   298.150 Kelvin.  Pressure   1.00000 Atm.
 Atom     1 has atomic number  6 and mass  12.00000

 Molecular mass:   137.04768 amu.
 Principal axes and moments of inertia in atomic units:
                           1         2         3
     Eigenvalues --   781.115451479.068892260.18434
           X            0.99999  -0.00435   0.00001
           Y            0.00435   0.99999   0.00001
           Z           -0.00001  -0.00001   1.00000
 This molecule is an asymmetric top.
 Rotational symmetry number  1.
 Warning -- assumption of classical behavior for rotation
           may cause significant error
 Rotational temperatures (Kelvin)      0.11088     0.05856     0.03832
 Rotational constants (GHZ):           2.31047     1.22019     0.79849
 Zero-point vibrational energy     351126.9 (Joules/Mol)
                                   83.92133 (Kcal/Mol)
 Warning -- explicit consideration of  12 degrees of freedom as
           vibrations may cause significant error
 Vibrational temperatures:     91.70   150.16   288.68   347.10   372.23
          (Kelvin)            538.21   608.04   627.60   744.99   787.90
                              828.74   845.81   893.84   945.10  1051.31
                             1097.66  1121.91  1182.05  1260.55  1270.28
                             1434.40  1463.91  1511.66  1567.10  1608.43
                             1709.05  1715.65  1749.10  1901.55  1940.48
                             1997.21  2047.02  2175.00  2219.34  2336.85
                             2381.86  2446.28  2575.03  4603.54  4628.54
                             4652.50  4678.31  5169.32  5410.69  5484.92

 Zero-point correction=                           0.133737 (Hartree/Particle)
 Thermal correction to Energy=                    0.142275
 Thermal correction to Enthalpy=                  0.143220
 Thermal correction to Gibbs Free Energy=         0.100052
 Sum of electronic and zero-point Energies=           -475.863523
 Sum of electronic and thermal Energies=              -475.854984
 Sum of electronic and thermal Enthalpies=            -475.854040
 Sum of electronic and thermal Free Energies=         -475.897208

                     E (Thermal)             CV                S
                      KCal/Mol        Cal/Mol-Kelvin    Cal/Mol-Kelvin
 Total                   89.279             32.820             90.854
 Electronic               0.000              0.000              0.000
 Translational            0.889              2.981             40.657
 Rotational               0.889              2.981             29.347
 Vibrational             87.502             26.858             20.850
 Vibration     1          0.597              1.972              4.338
 Vibration     2          0.605              1.946              3.371
 Vibration     3          0.638              1.839              2.127
 Vibration     4          0.658              1.777              1.794
 Vibration     5          0.668              1.748              1.670
 Vibration     6          0.745              1.525              1.063
 Vibration     7          0.785              1.421              0.883
 Vibration     8          0.797              1.391              0.839
 Vibration     9          0.873              1.211              0.615
 Vibration    10          0.903              1.145              0.549
 Vibration    11          0.932              1.083              0.493
 Vibration    12          0.945              1.058              0.471

 Optimization completed.
    -- Stationary point found.
 Normal termination of Gaussian 09 at Sat Jun 22 16:42:33 2024.
