 Gaussian 09, Revision E.01,
 Gaussian 09:  ES64L-G09RevE.01 30-Nov-2015

 ----------------------------
 # opt freq m062x/6-31+g(d,p)
 ----------------------------

 ----------
 [No Title]
 ----------
 Symbolic Z-matrix:
 Charge =  0 Multiplicity = 1

 SCF Done:  E(RM062X) =  -476.020998250     A.U. after   15 cycles
 SCF Done:  E(RM062X) =  -476.021397701     A.U. after   12 cycles
 SCF Done:  E(RM062X) =  -476.021395506     A.U. after   12 cycles
 SCF Done:  E(RM062X) =  -476.021413902     A.U. after   12 cycles
 SCF Done:  E(RM062X) =  -476.021427923     A.U. after   11 cycles
 SCF Done:  E(RM062X) =  -476.021429428     A.U. after   10 cycles
 Optimization completed.
    -- Stationary point found.
 Normal termination of Gaussian 09 at Sat Jun 22 17:02:53 2024.

 ----------------------------------------------------------------------
 #N Geom=AllCheck Guess=TCheck SCRF=Check GenChk RM062X/6-31+G(d,p) Fre
 q
 ----------------------------------------------------------------------

 Structure from the checkpoint file:  "m062xAnthranilic.chk"
 ----------
 [No Title]
 ----------
 Charge =  0 Multiplicity = 1

                         Standard orientation:
 ---------------------------------------------------------------------
 Center     Atomic      Atomic             Coordinates (Angstroms)
 Number     Number       Type             X           Y           Z
 ---------------------------------------------------------------------
      1          6           0       -1.849831   -1.522965    0.000014
      2          6           0       -2.578490   -0.324142    0.000003
      3          6           0       -1.937487    0.898323    0.000001
      4          6           0       -0.526421    0.985046    0.000010
      5          6           0        0.209628   -0.228224    0.000012
      6          6           0       -0.469482   -1.459380    0.000015
      7          6           0        1.678631   -0.200578    0.000000
      8          8           0        2.247150   -1.424598   -0.000054
      9          7           0        0.070869    2.206040    0.000025
     10          8           0        2.374294    0.802073   -0.000008
     11          1           0       -2.358854   -2.479812    0.000018
     12          1           0       -3.664318   -0.350514   -0.000001
     13          1           0       -2.514603    1.818895   -0.000002
     14          1           0        0.121413   -2.368364    0.000018
     15          1           0        3.205258   -1.282331   -0.000065
     16          1           0        1.077765    2.273720    0.000034
     17          1           0       -0.493583    3.037837   -0.000018
 ---------------------------------------------------------------------

 SCF Done:  E(RM062X) =  -476.021429428     A.U. after    1 cycles

 The electronic state is 1-A.
 Alpha  occ. eigenvalues --  -19.69547 -19.64398 -14.77764 -10.69578 -10.61701
 Alpha  occ. eigenvalues --  -10.56723 -10.56633 -10.56455 -10.55735 -10.54926
 Alpha  occ. eigenvalues --   -1.24272  -1.14330  -1.04427  -0.95366  -0.87213
 Alpha  occ. eigenvalues --   -0.83379  -0.75351  -0.70949  -0.67917  -0.61635
 Alpha  occ. eigenvalues --   -0.60189  -0.58686  -0.57772  -0.54148  -0.53254
 Alpha  occ. eigenvalues --   -0.51040  -0.49877  -0.47743  -0.46598  -0.43775
 Alpha  occ. eigenvalues --   -0.41673  -0.40178  -0.38681  -0.36046  -0.31841
 Alpha  occ. eigenvalues --   -0.26171
 Alpha virt. eigenvalues --   -0.01763   0.01135   0.01977   0.02902   0.02905
 Alpha virt. eigenvalues --    0.04087   0.05038   0.05532   0.06372   0.07357
 Alpha virt. eigenvalues --    0.07801   0.08326   0.09133   0.10436   0.10843

 Mulliken charges:
               1
     1  C   -0.061567
     2  C   -0.456402
     3  C    0.378304
     4  C   -0.923066
     5  C    0.945639
     6  C   -0.686694
     7  C    0.765518
     8  O   -0.509389
     9  N   -0.670227
    10  O   -0.518467
    11  H    0.154031
    12  H    0.156346
    13  H    0.137179
    14  H    0.182655
    15  H    0.403657
    16  H    0.376147
    17  H    0.326336
 Sum of Mulliken charges =  -0.00000

 Dipole moment (field-independent basis, Debye):
    X=             -1.0327    Y=              0.5101    Z=             -0.0000  Tot=              1.1518
 Quadrupole moment (field-independent basis, Debye-Ang):
   XX=            -51.6377   YY=            -50.3049   ZZ=            -62.6799
   XY=             -5.3632   XZ=              0.0000   YZ=             -0.0002

  Exact polarizability: 122.032   4.560 112.336   0.012   0.003  52.175
 Approx polarizability: 144.743   9.144 147.387   0.000   0.000  66.902

 ******    1 imaginary frequencies (negative Signs) ******

                      1                      2                      3
                      A                      A                      A
 Frequencies --   -101.3426                91.8218               164.0154
 Red. masses --      1.9531                 5.2992                 2.1390
 Frc consts  --      0.0118                 0.0263                 0.0339
 IR Inten    --    142.4874                13.3579                47.2593

                      4                      5                      6
                      A                      A                      A
 Frequencies --    236.5158               264.8054               378.7437
 Red. masses --      4.3468                 5.8979                 5.6445
 Frc consts  --      0.1433                 0.2437                 0.4770
 IR Inten    --      5.2672                 0.8245                 6.0471

                      7                      8                      9
                      A                      A                      A
 Frequencies --    418.5288               429.0657               518.3410
 Red. masses --      5.5260                 3.0843                 4.1250
 Frc consts  --      0.5703                 0.3345                 0.6530
 IR Inten    --      1.0814                 5.8039                 4.6565

                     10                     11                     12
                      A                      A                      A
 Frequencies --    540.9960               570.8606               578.4273
 Red. masses --      2.7954                 6.8958                 1.0486
 Frc consts  --      0.4820                 1.3240                 0.2067
 IR Inten    --     12.8534                 1.3502                46.7118

                     13                     14                     15
                      A                      A                      A
 Frequencies --    587.0698               657.4737               718.6633
 Red. masses --      1.1905                 5.4572                 3.2169
 Frc consts  --      0.2417                 1.3899                 0.9789
 IR Inten    --     62.9673                49.6521                43.7142

                     16                     17                     18
                      A                      A                      A
 Frequencies --    767.0239               768.5487               814.2436
 Red. masses --      4.0457                 1.4874                 4.1453
 Frc consts  --      1.4024                 0.5176                 1.6193
 IR Inten    --     21.9316                70.0929                 4.2078

                     19                     20                     21
                      A                      A                      A
 Frequencies --    868.3521               874.4628               993.0707
 Red. masses --      5.3007                 1.5697                 1.3547
 Frc consts  --      2.3549                 0.7072                 0.7871
 IR Inten    --      7.9623                 3.5952                 1.1783

                     22                     23                     24
                      A                      A                      A
 Frequencies --   1009.3202              1045.9228              1088.9539
 Red. masses --      1.3082                 1.8764                 1.8327
 Frc consts  --      0.7852                 1.2094                 1.2805
 IR Inten    --      0.0045                 6.3284                 9.8563

                     25                     26                     27
                      A                      A                      A
 Frequencies --   1117.3111              1184.0973              1187.5005
 Red. masses --      3.6565                 1.1760                 1.3351
 Frc consts  --      2.6894                 0.9714                 1.1093
 IR Inten    --     78.4342               117.0103                 8.6284

                     28                     29                     30
                      A                      A                      A
 Frequencies --   1219.7131              1320.0331              1342.7986
 Red. masses --      1.6417                 1.7739                 2.1973
 Frc consts  --      1.4390                 1.8212                 2.3344
 IR Inten    --    296.0380                 2.1887                52.9164

                     31                     32                     33
                      A                      A                      A
 Frequencies --   1388.4450              1428.9699              1508.6805
 Red. masses --      3.0030                 4.7499                 2.8504
 Frc consts  --      3.4109                 5.7146                 3.8225
 IR Inten    --     70.5454               116.3294                15.4518

                     34                     35                     36
                      A                      A                      A
 Frequencies --   1539.2670              1626.9432              1656.1896
 Red. masses --      2.4276                 1.8648                 3.2212
 Frc consts  --      3.3888                 2.9082                 5.2058
 IR Inten    --     45.4766               153.6939               177.1462

                     37                     38                     39
                      A                      A                      A
 Frequencies --   1704.5062              1818.7915              3194.8618
 Red. masses --      5.4582                 8.5558                 1.0867
 Frc consts  --      9.3432                16.6753                 6.5356
 IR Inten    --    116.9053               471.7815                 4.8918

                     40                     41                     42
                      A                      A                      A
 Frequencies --   3209.7338              3222.7643              3252.9726
 Red. masses --      1.0937                 1.0948                 1.0939
 Frc consts  --      6.6390                 6.6994                 6.8203
 IR Inten    --     13.5186                 6.2215                 1.6707

                     43                     44                     45
                      A                      A                      A
 Frequencies --   3613.3280              3774.8038              3840.4934
 Red. masses --      1.0486                 1.1025                 1.0648
 Frc consts  --      8.0662                 9.2557                 9.2532
 IR Inten    --    121.4737                89.3602               132.6783

 - Thermochemistry -
 -------------------
 Temperature   298.150 Kelvin.  Pressure   1.00000 Atm.
 Atom     1 has atomic number  6 and mass  12.00000

 Molecular mass:   137.04768 amu.
 Principal axes and moments of inertia in atomic units:
                           1         2         3
     Eigenvalues --   783.688901479.708352263.39725
           X            0.99999  -0.00466   0.00001
           Y            0.00466   0.99999  -0.00001
           Z           -0.00001   0.00001   1.00000
 This molecule is an asymmetric top.
 Rotational symmetry number  1.
 Warning -- assumption of classical behavior for rotation
           may cause significant error
 Rotational temperatures (Kelvin)      0.11052     0.05853     0.03827
 Rotational constants (GHZ):           2.30288     1.21966     0.79736
    1 imaginary frequencies ignored.
 Zero-point vibrational energy     350131.6 (Joules/Mol)
                                   83.68346 (Kcal/Mol)
 Warning -- explicit consideration of  12 degrees of freedom as
           vibrations may cause significant error
 Vibrational temperatures:    132.11   235.98   340.29   381.00   544.93
          (Kelvin)            602.17   617.33   745.78   778.37   821.34
                              832.23   844.66   945.96  1033.99  1103.57
                             1105.77  1171.51  1249.36  1258.16  1428.81
                             1452.18  1504.85  1566.76  1607.56  1703.65
                             1708.55  1754.89  1899.23  1931.99  1997.66
                             2055.97  2170.65  2214.66  2340.81  2382.88
                             2452.40  2616.83  4596.69  4618.09  4636.83
                             4680.30  5198.77  5431.09  5525.61

 Zero-point correction=                           0.133358 (Hartree/Particle)
 Thermal correction to Energy=                    0.141223
 Thermal correction to Enthalpy=                  0.142167
 Thermal correction to Gibbs Free Energy=         0.100689
 Sum of electronic and zero-point Energies=           -475.888071
 Sum of electronic and thermal Energies=              -475.880206
 Sum of electronic and thermal Enthalpies=            -475.879262
 Sum of electronic and thermal Free Energies=         -475.920741

                     E (Thermal)             CV                S
                      KCal/Mol        Cal/Mol-Kelvin    Cal/Mol-Kelvin
 Total                   88.619             31.123             87.298
 Electronic               0.000              0.000              0.000
 Translational            0.889              2.981             40.657
 Rotational               0.889              2.981             29.352
 Vibrational             86.841             25.161             17.288
 Vibration     1          0.602              1.955              3.621
 Vibration     2          0.623              1.887              2.503
 Vibration     3          0.655              1.785              1.829
 Vibration     4          0.671              1.738              1.630
 Vibration     5          0.749              1.515              1.044
 Vibration     6          0.781              1.430              0.897
 Vibration     7          0.790              1.407              0.862
 Vibration     8          0.873              1.209              0.614
 Vibration     9          0.896              1.159              0.563
 Vibration    10          0.927              1.094              0.503
 Vibration    11          0.935              1.078              0.488
 Vibration    12          0.944              1.059              0.472

 Optimization completed.
    -- Stationary point found.
 Normal termination of Gaussian 09 at Sat Jun 22 17:04:36 2024.
