 Gaussian 09, Revision E.01,
 Gaussian 09:  ES64L-G09RevE.01 30-Nov-2015

 ----------------------------
 # opt freq m062x/6-31+g(d,p)
 ----------------------------

 ----------
 [No Title]
 ----------
 Symbolic Z-matrix:
 Charge =  1 Multiplicity = 1

 SCF Done:  E(RM062X) =  -476.370068006     A.U. after   15 cycles
 SCF Done:  E(RM062X) =  -476.370326734     A.U. after   12 cycles
 SCF Done:  E(RM062X) =  -476.370157745     A.U. after   13 cycles
 SCF Done:  E(RM062X) =  -476.370423490     A.U. after    9 cycles
 SCF Done:  E(RM062X) =  -476.370457827     A.U. after   11 cycles
 SCF Done:  E(RM062X) =  -476.370458510     A.U. after    9 cycles
 SCF Done:  E(RM062X) =  -476.370458330     A.U. after   10 cycles
 SCF Done:  E(RM062X) =  -476.370458679     A.U. after    9 cycles
 Optimization completed.
    -- Stationary point found.
 Normal termination of Gaussian 09 at Sat Jun 22 17:02:57 2024.

 ----------------------------------------------------------------------
 #N Geom=AllCheck Guess=TCheck SCRF=Check GenChk RM062X/6-31+G(d,p) Fre
 q
 ----------------------------------------------------------------------

 Structure from the checkpoint file:  "m062xAnthranilicyang.chk"
 ----------
 [No Title]
 ----------
 Charge =  1 Multiplicity = 1

                         Standard orientation:
 ---------------------------------------------------------------------
 Center     Atomic      Atomic             Coordinates (Angstroms)
 Number     Number       Type             X           Y           Z
 ---------------------------------------------------------------------
      1          6           0        1.932763   -1.471226    0.000021
      2          6           0        2.613527   -0.256240   -0.000002
      3          6           0        1.907673    0.948231   -0.000005
      4          6           0        0.525320    0.908758    0.000014
      5          6           0       -0.182612   -0.300522    0.000042
      6          6           0        0.540781   -1.495509    0.000041
      7          6           0       -1.670450   -0.300889    0.000061
      8          8           0       -2.211260   -1.498517   -0.000080
      9          7           0       -0.240547    2.172215    0.000006
     10          8           0       -2.339035    0.729426   -0.000038
     11          1           0        2.486781   -2.403274    0.000022
     12          1           0        3.697984   -0.237768   -0.000019
     13          1           0        2.436421    1.897478   -0.000021
     14          1           0        0.002258   -2.436767    0.000060
     15          1           0       -3.181374   -1.422864   -0.000178
     16          1           0       -0.040956    2.738069   -0.830310
     17          1           0       -1.275878    1.878709   -0.000062
     18          1           0       -0.041066    2.738016    0.830386
 ---------------------------------------------------------------------

 SCF Done:  E(RM062X) =  -476.370458679     A.U. after    1 cycles

 The electronic state is 1-A.
 Alpha  occ. eigenvalues --  -19.86431 -19.82434 -15.04967 -10.87664 -10.79513
 Alpha  occ. eigenvalues --  -10.75218 -10.73731 -10.73062 -10.72873 -10.71997
 Alpha  occ. eigenvalues --   -1.42054  -1.32770  -1.28368  -1.14102  -1.04538
 Alpha  occ. eigenvalues --   -1.01983  -0.92841  -0.89222  -0.86121  -0.83054
 Alpha  occ. eigenvalues --   -0.81657  -0.78799  -0.75814  -0.75039  -0.71493
 Alpha  occ. eigenvalues --   -0.69892  -0.68227  -0.67519  -0.64152  -0.61384
 Alpha  occ. eigenvalues --   -0.60284  -0.58536  -0.57131  -0.53912  -0.48626
 Alpha  occ. eigenvalues --   -0.48485
 Alpha virt. eigenvalues --   -0.19126  -0.15495  -0.14776  -0.10330  -0.09651
 Alpha virt. eigenvalues --   -0.08746  -0.07949  -0.07814  -0.07031  -0.06421
 Alpha virt. eigenvalues --   -0.04971  -0.04743  -0.03817  -0.03301  -0.02172

 Mulliken charges:
               1
     1  C   -0.018218
     2  C   -0.376860
     3  C    0.474455
     4  C   -1.063532
     5  C    1.050203
     6  C   -0.745689
     7  C    0.714985
     8  O   -0.454315
     9  N   -0.710873
    10  O   -0.472947
    11  H    0.209186
    12  H    0.210125
    13  H    0.196968
    14  H    0.225306
    15  H    0.435433
    16  H    0.428434
    17  H    0.468898
    18  H    0.428441
 Sum of Mulliken charges =   1.00000

 Dipole moment (field-independent basis, Debye):
    X=              1.0174    Y=              4.2605    Z=              0.0000  Tot=              4.3803
 Quadrupole moment (field-independent basis, Debye-Ang):
   XX=            -35.9376   YY=            -28.6966   ZZ=            -56.8115
   XY=              3.6509   XZ=              0.0003   YZ=              0.0002

  Exact polarizability: 112.286  -0.887  99.798   0.000  -0.000  47.588
 Approx polarizability: 137.029  -1.409 132.108   0.000  -0.001  62.583

                      1                      2                      3
                      A                      A                      A
 Frequencies --     92.1419               133.7632               234.3474
 Red. masses --      6.3602                 3.7322                 3.2169
 Frc consts  --      0.0318                 0.0393                 0.1041
 IR Inten    --      6.2795                 1.6475                20.2895

                      4                      5                      6
                      A                      A                      A
 Frequencies --    270.9222               323.2142               356.1971
 Red. masses --      4.9579                 1.1681                 3.7452
 Frc consts  --      0.2144                 0.0719                 0.2800
 IR Inten    --     24.8640                 0.3263                75.9801

                      7                      8                      9
                      A                      A                      A
 Frequencies --    422.1862               432.7366               491.1618
 Red. masses --      3.0240                 8.0841                 3.1564
 Frc consts  --      0.3176                 0.8919                 0.4486
 IR Inten    --      9.2858                 2.8383                 6.0747

                     10                     11                     12
                      A                      A                      A
 Frequencies --    504.2986               564.5576               627.2571
 Red. masses --      4.7287                 6.3271                 1.2989
 Frc consts  --      0.7086                 1.1882                 0.3011
 IR Inten    --      4.1993                 2.9160                70.9916

                     13                     14                     15
                      A                      A                      A
 Frequencies --    664.3500               702.7220               766.2177
 Red. masses --      5.4013                 2.9304                 3.8979
 Frc consts  --      1.4046                 0.8526                 1.3483
 IR Inten    --     85.4163                45.8342                56.5464

                     16                     17                     18
                      A                      A                      A
 Frequencies --    767.5992               815.6259               834.9337
 Red. masses --      1.6293                 2.5867                 5.1317
 Frc consts  --      0.5656                 1.0139                 2.1077
 IR Inten    --    106.2507                 0.3577                17.1947

                     19                     20                     21
                      A                      A                      A
 Frequencies --    908.6606              1005.3145              1045.8191
 Red. masses --      1.3519                 1.3691                 1.3502
 Frc consts  --      0.6577                 0.8152                 0.8701
 IR Inten    --      0.1162                 0.4507                 0.0001

                     22                     23                     24
                      A                      A                      A
 Frequencies --   1071.7339              1087.7898              1126.8670
 Red. masses --      2.1411                 2.0310                 1.3228
 Frc consts  --      1.4490                 1.4160                 0.9897
 IR Inten    --     28.7042                17.1341                10.2237

                     25                     26                     27
                      A                      A                      A
 Frequencies --   1130.3680              1189.7190              1199.5847
 Red. masses --      2.1170                 1.5513                 1.1671
 Frc consts  --      1.5937                 1.2937                 0.9895
 IR Inten    --     52.6145                 0.0456                 0.0662

                     28                     29                     30
                      A                      A                      A
 Frequencies --   1223.4545              1232.0150              1327.4172
 Red. masses --      1.7436                 2.4871                 1.4656
 Frc consts  --      1.5377                 2.2242                 1.5215
 IR Inten    --    207.4789                12.9128                 3.4122

                     31                     32                     33
                      A                      A                      A
 Frequencies --   1378.2718              1446.4657              1492.0400
 Red. masses --      5.5009                 1.5990                 2.3363
 Frc consts  --      6.1567                 1.9711                 3.0643
 IR Inten    --     26.6228               367.5662               230.5141

                     34                     35                     36
                      A                      A                      A
 Frequencies --   1508.2341              1556.9979              1619.2651
 Red. masses --      2.5278                 3.0147                 1.1676
 Frc consts  --      3.3879                 4.3060                 1.8038
 IR Inten    --     14.1173                80.3738                20.2385

                     37                     38                     39
                      A                      A                      A
 Frequencies --   1666.2650              1673.2030              1709.3245
 Red. masses --      1.0434                 5.3288                 5.3957
 Frc consts  --      1.7067                 8.7897                 9.2885
 IR Inten    --     43.9132                 2.7094                61.5384

                     40                     41                     42
                      A                      A                      A
 Frequencies --   1796.5994              2613.1180              3204.2439
 Red. masses --      5.9914                 1.1006                 1.0931
 Frc consts  --     11.3942                 4.4279                 6.6124
 IR Inten    --    312.1025               733.9856                 0.7692

                     43                     44                     45
                      A                      A                      A
 Frequencies --   3228.8444              3237.8034              3246.3383
 Red. masses --      1.0916                 1.0942                 1.0984
 Frc consts  --      6.7052                 6.7582                 6.8201
 IR Inten    --      0.2608                 3.6839                 4.4978

                     46                     47                     48
                      A                      A                      A
 Frequencies --   3458.4381              3526.4924              3784.1868
 Red. masses --      1.0527                 1.0945                 1.0653
 Frc consts  --      7.4187                 8.0199                 8.9879
 IR Inten    --    123.7472               121.9970               257.1274

 - Thermochemistry -
 -------------------
 Temperature   298.150 Kelvin.  Pressure   1.00000 Atm.
 Atom     1 has atomic number  6 and mass  12.00000

 Molecular mass:   138.05550 amu.
 Principal axes and moments of inertia in atomic units:
                           1         2         3
     Eigenvalues --   801.730021488.466942280.27121
           X            1.00000  -0.00125  -0.00001
           Y            0.00125   1.00000  -0.00000
           Z            0.00001   0.00000   1.00000
 This molecule is an asymmetric top.
 Rotational symmetry number  1.
 Warning -- assumption of classical behavior for rotation
           may cause significant error
 Rotational temperatures (Kelvin)      0.10803     0.05819     0.03798
 Rotational constants (GHZ):           2.25106     1.21248     0.79146
 Zero-point vibrational energy     386986.6 (Joules/Mol)
                                   92.49202 (Kcal/Mol)
 Warning -- explicit consideration of  11 degrees of freedom as
           vibrations may cause significant error
 Vibrational temperatures:    132.57   192.46   337.17   389.80   465.03
          (Kelvin)            512.49   607.43   622.61   706.67   725.57
                              812.27   902.48   955.85  1011.06  1102.42
                             1104.40  1173.50  1201.28  1307.36  1446.42
                             1504.70  1541.98  1565.08  1621.31  1626.35
                             1711.74  1725.93  1760.28  1772.59  1909.85
                             1983.02  2081.14  2146.71  2170.01  2240.17
                             2329.76  2397.38  2407.36  2459.33  2584.90
                             3759.69  4610.19  4645.58  4658.47  4670.75
                             4975.91  5073.83  5444.59

 Zero-point correction=                           0.147395 (Hartree/Particle)
 Thermal correction to Energy=                    0.155598
 Thermal correction to Enthalpy=                  0.156543
 Thermal correction to Gibbs Free Energy=         0.114374
 Sum of electronic and zero-point Energies=           -476.223063
 Sum of electronic and thermal Energies=              -476.214860
 Sum of electronic and thermal Enthalpies=            -476.213916
 Sum of electronic and thermal Free Energies=         -476.256085

                     E (Thermal)             CV                S
                      KCal/Mol        Cal/Mol-Kelvin    Cal/Mol-Kelvin
 Total                   97.639             32.146             88.752
 Electronic               0.000              0.000              0.000
 Translational            0.889              2.981             40.679
 Rotational               0.889              2.981             29.388
 Vibrational             95.862             26.185             18.685
 Vibration     1          0.602              1.955              3.614
 Vibration     2          0.613              1.920              2.891
 Vibration     3          0.654              1.788              1.845
 Vibration     4          0.675              1.727              1.590
 Vibration     5          0.708              1.629              1.294
 Vibration     6          0.732              1.563              1.139
 Vibration     7          0.785              1.422              0.885
 Vibration     8          0.794              1.399              0.850
 Vibration     9          0.847              1.270              0.681
 Vibration    10          0.860              1.240              0.647
 Vibration    11          0.920              1.108              0.515

 Optimization completed.
    -- Stationary point found.
 Normal termination of Gaussian 09 at Sat Jun 22 17:04:42 2024.
