 Gaussian 09, Revision E.01,
 Gaussian 09:  ES64L-G09RevE.01 30-Nov-2015

 -----------------------------
 # opt freq pbepbe/6-31+g(d,p)
 -----------------------------

 ----------
 [No Title]
 ----------
 Symbolic Z-matrix:
 Charge =  0 Multiplicity = 1

 SCF Done:  E(RPBE-PBE) =  -475.667811305     A.U. after   16 cycles
 SCF Done:  E(RPBE-PBE) =  -475.668713771     A.U. after   13 cycles
 SCF Done:  E(RPBE-PBE) =  -475.668723991     A.U. after   12 cycles
 SCF Done:  E(RPBE-PBE) =  -475.668742139     A.U. after   12 cycles
 SCF Done:  E(RPBE-PBE) =  -475.668752220     A.U. after   11 cycles
 SCF Done:  E(RPBE-PBE) =  -475.668756730     A.U. after   10 cycles
 Optimization completed.
    -- Stationary point found.
 Normal termination of Gaussian 09 at Sat Jun 22 16:45:08 2024.

 ----------------------------------------------------------------------
 #N Geom=AllCheck Guess=TCheck SCRF=Check GenChk RPBEPBE/6-31+G(d,p) Fr
 eq
 ----------------------------------------------------------------------

 Structure from the checkpoint file:  "pbeAnthranilic.chk"
 ----------
 [No Title]
 ----------
 Charge =  0 Multiplicity = 1

                         Standard orientation:
 ---------------------------------------------------------------------
 Center     Atomic      Atomic             Coordinates (Angstroms)
 Number     Number       Type             X           Y           Z
 ---------------------------------------------------------------------
      1          6           0       -1.875393   -1.521250    0.000016
      2          6           0       -2.602949   -0.310862    0.000021
      3          6           0       -1.948454    0.916607    0.000014
      4          6           0       -0.528083    0.993687    0.000002
      5          6           0        0.213780   -0.236771   -0.000000
      6          6           0       -0.484199   -1.470084    0.000007
      7          6           0        1.680226   -0.208310   -0.000017
      8          8           0        2.263734   -1.447945    0.000022
      9          7           0        0.094790    2.207410    0.000002
     10          8           0        2.389563    0.811723   -0.000056
     11          1           0       -2.394994   -2.482728    0.000019
     12          1           0       -3.697555   -0.331339    0.000029
     13          1           0       -2.524507    1.848316    0.000018
     14          1           0        0.101882   -2.392082    0.000003
     15          1           0        3.228385   -1.272690   -0.000002
     16          1           0        1.117036    2.228245   -0.000043
     17          1           0       -0.449724    3.062085   -0.000026
 ---------------------------------------------------------------------

 SCF Done:  E(RPBE-PBE) =  -475.668756730     A.U. after    1 cycles

 The electronic state is 1-A.
 Alpha  occ. eigenvalues --  -18.82972 -18.77696 -14.02944 -10.03292  -9.96685
 Alpha  occ. eigenvalues --   -9.92369  -9.92062  -9.91741  -9.91370  -9.90618
 Alpha  occ. eigenvalues --   -1.01634  -0.92855  -0.85516  -0.77173  -0.70163
 Alpha  occ. eigenvalues --   -0.66828  -0.60057  -0.56487  -0.53742  -0.48527
 Alpha  occ. eigenvalues --   -0.47374  -0.45749  -0.43516  -0.40730  -0.40308
 Alpha  occ. eigenvalues --   -0.39160  -0.38245  -0.35521  -0.34829  -0.32884
 Alpha  occ. eigenvalues --   -0.31247  -0.28877  -0.27880  -0.24019  -0.23799
 Alpha  occ. eigenvalues --   -0.18880
 Alpha virt. eigenvalues --   -0.08208  -0.03304  -0.01636  -0.00636   0.00299
 Alpha virt. eigenvalues --    0.00637   0.01960   0.03364   0.04056   0.04203
 Alpha virt. eigenvalues --    0.05693   0.06294   0.06953   0.07955   0.08586

 Mulliken charges:
               1
     1  C    0.002433
     2  C   -0.534896
     3  C    0.466403
     4  C   -1.141226
     5  C    1.226520
     6  C   -0.849210
     7  C    0.726430
     8  O   -0.431797
     9  N   -0.592907
    10  O   -0.486336
    11  H    0.141499
    12  H    0.143026
    13  H    0.126631
    14  H    0.166084
    15  H    0.375947
    16  H    0.350814
    17  H    0.310585
 Sum of Mulliken charges =  -0.00000

 Dipole moment (field-independent basis, Debye):
    X=             -1.1379    Y=              0.7131    Z=             -0.0001  Tot=              1.3429
 Quadrupole moment (field-independent basis, Debye-Ang):
   XX=            -52.6410   YY=            -50.3264   ZZ=            -62.6502
   XY=             -5.0420   XZ=              0.0000   YZ=             -0.0001

  Exact polarizability: 136.636   3.409 120.888  -0.002  -0.005  55.233
 Approx polarizability: 264.649  13.849 261.864  -0.002  -0.001  88.920

 ******    1 imaginary frequencies (negative Signs) ******

                      1                      2                      3
                      A                      A                      A
 Frequencies --    -31.6140                91.7821               188.0068
 Red. masses --      3.1584                 5.2648                 1.5688
 Frc consts  --      0.0019                 0.0261                 0.0327
 IR Inten    --     71.9161                 9.4216                80.7986

                      4                      5                      6
                      A                      A                      A
 Frequencies --    229.7307               247.5674               358.3892
 Red. masses --      3.9249                 5.6975                 4.8712
 Frc consts  --      0.1220                 0.2057                 0.3686
 IR Inten    --      9.3067                 1.0039                 9.8090

                      7                      8                      9
                      A                      A                      A
 Frequencies --    407.8143               413.3353               494.5871
 Red. masses --      6.0279                 3.0487                 4.2608
 Frc consts  --      0.5907                 0.3069                 0.6141
 IR Inten    --      1.1728                 5.3460                 5.3051

                     10                     11                     12
                      A                      A                      A
 Frequencies --    518.6403               550.8125               568.2180
 Red. masses --      2.9153                 6.8477                 1.1940
 Frc consts  --      0.4620                 1.2241                 0.2271
 IR Inten    --     14.9806                 0.9469                82.8073

                     13                     14                     15
                      A                      A                      A
 Frequencies --    625.6310               638.8629               691.7358
 Red. masses --      5.2272                 1.0395                 3.2045
 Frc consts  --      1.2055                 0.2500                 0.9034
 IR Inten    --     46.0789                28.9150                43.0223

                     16                     17                     18
                      A                      A                      A
 Frequencies --    728.5973               735.3279               772.6507
 Red. masses --      4.2692                 1.4943                 3.2588
 Frc consts  --      1.3353                 0.4760                 1.1462
 IR Inten    --      9.1836                46.5365                 0.6998

                     19                     20                     21
                      A                      A                      A
 Frequencies --    825.7338               841.5492               924.7530
 Red. masses --      1.7715                 5.3786                 1.3554
 Frc consts  --      0.7117                 2.2443                 0.6829
 IR Inten    --      2.1375                 4.5622                 0.6204

                     22                     23                     24
                      A                      A                      A
 Frequencies --    944.9088              1012.2135              1044.9821
 Red. masses --      1.2838                 2.0268                 2.2706
 Frc consts  --      0.6754                 1.2235                 1.4608
 IR Inten    --      0.0004                 2.7955                47.9172

                     25                     26                     27
                      A                      A                      A
 Frequencies --   1059.5057              1140.1678              1153.0631
 Red. masses --      2.9459                 1.3212                 1.1328
 Frc consts  --      1.9484                 1.0119                 0.8874
 IR Inten    --    122.5880                81.2939                59.3848

                     28                     29                     30
                      A                      A                      A
 Frequencies --   1168.9338              1272.6602              1317.6331
 Red. masses --      1.5680                 1.6403                 2.0975
 Frc consts  --      1.2623                 1.5653                 2.1456
 IR Inten    --    163.6646                 2.0057                34.5265

                     31                     32                     33
                      A                      A                      A
 Frequencies --   1340.6792              1389.4736              1447.3461
 Red. masses --      3.1670                 7.3587                 2.5978
 Frc consts  --      3.3538                 8.3705                 3.2063
 IR Inten    --    144.4287                 5.0859                 1.9131

                     34                     35                     36
                      A                      A                      A
 Frequencies --   1475.3947              1544.4419              1576.2780
 Red. masses --      2.2382                 2.4155                 3.0710
 Frc consts  --      2.8705                 3.3947                 4.4957
 IR Inten    --     30.1740               134.6835               168.7388

                     37                     38                     39
                      A                      A                      A
 Frequencies --   1622.6321              1686.0801              3107.3280
 Red. masses --      4.7658                 6.5159                 1.0865
 Frc consts  --      7.3930                10.9140                 6.1811
 IR Inten    --    113.5859               365.1514                 8.7808

                     40                     41                     42
                      A                      A                      A
 Frequencies --   3125.2408              3141.5374              3157.9673
 Red. masses --      1.0914                 1.0911                 1.0949
 Frc consts  --      6.2806                 6.3444                 6.4335
 IR Inten    --     15.8676                 8.1611                 5.6493

                     43                     44                     45
                      A                      A                      A
 Frequencies --   3430.2444              3641.0813              3652.4727
 Red. masses --      1.0546                 1.0962                 1.0644
 Frc consts  --      7.3113                 8.5627                 8.3659
 IR Inten    --    116.9862                75.1178                71.4267

 - Thermochemistry -
 -------------------
 Temperature   298.150 Kelvin.  Pressure   1.00000 Atm.
 Atom     1 has atomic number  6 and mass  12.00000

 Molecular mass:   137.04768 amu.
 Principal axes and moments of inertia in atomic units:
                           1         2         3
     Eigenvalues --   792.441721503.010082295.45180
           X            0.99999  -0.00381   0.00001
           Y            0.00381   0.99999   0.00001
           Z           -0.00001  -0.00001   1.00000
 This molecule is an asymmetric top.
 Rotational symmetry number  1.
 Warning -- assumption of classical behavior for rotation
           may cause significant error
 Rotational temperatures (Kelvin)      0.10930     0.05763     0.03773
 Rotational constants (GHZ):           2.27744     1.20075     0.78622
    1 imaginary frequencies ignored.
 Zero-point vibrational energy     336784.6 (Joules/Mol)
                                   80.49345 (Kcal/Mol)
 Warning -- explicit consideration of  11 degrees of freedom as
           vibrations may cause significant error
 Vibrational temperatures:    132.05   270.50   330.53   356.19   515.64
          (Kelvin)            586.75   594.70   711.60   746.21   792.50
                              817.54   900.14   919.18   995.25  1048.29
                             1057.97  1111.67  1188.05  1210.80  1330.51
                             1359.51  1456.35  1503.49  1524.39  1640.45
                             1659.00  1681.83  1831.07  1895.78  1928.94
                             1999.14  2082.41  2122.76  2222.10  2267.91
                             2334.60  2425.89  4470.75  4496.52  4519.97
                             4543.60  4935.35  5238.70  5255.09

 Zero-point correction=                           0.128274 (Hartree/Particle)
 Thermal correction to Energy=                    0.136343
 Thermal correction to Enthalpy=                  0.137287
 Thermal correction to Gibbs Free Energy=         0.095524
 Sum of electronic and zero-point Energies=           -475.540482
 Sum of electronic and thermal Energies=              -475.532414
 Sum of electronic and thermal Enthalpies=            -475.531470
 Sum of electronic and thermal Free Energies=         -475.573233

                     E (Thermal)             CV                S
                      KCal/Mol        Cal/Mol-Kelvin    Cal/Mol-Kelvin
 Total                   85.557             32.251             87.898
 Electronic               0.000              0.000              0.000
 Translational            0.889              2.981             40.657
 Rotational               0.889              2.981             29.393
 Vibrational             83.779             26.290             17.848
 Vibration     1          0.602              1.955              3.622
 Vibration     2          0.633              1.856              2.247
 Vibration     3          0.652              1.796              1.881
 Vibration     4          0.661              1.767              1.748
 Vibration     5          0.733              1.558              1.129
 Vibration     6          0.772              1.453              0.934
 Vibration     7          0.777              1.441              0.915
 Vibration     8          0.850              1.262              0.672
 Vibration     9          0.874              1.209              0.613
 Vibration    10          0.906              1.138              0.542
 Vibration    11          0.924              1.100              0.508

 Optimization completed.
    -- Stationary point found.
 Normal termination of Gaussian 09 at Sat Jun 22 16:46:18 2024.
