 Gaussian 09, Revision E.01,
 Gaussian 09:  ES64L-G09RevE.01 30-Nov-2015

 -----------------------------
 # opt freq pbepbe/6-31+g(d,p)
 -----------------------------

 ----------
 [No Title]
 ----------
 Symbolic Z-matrix:
 Charge =  1 Multiplicity = 1

 SCF Done:  E(RPBE-PBE) =  -476.018616401     A.U. after   15 cycles
 SCF Done:  E(RPBE-PBE) =  -476.019592144     A.U. after   13 cycles
 SCF Done:  E(RPBE-PBE) =  -476.019474113     A.U. after   12 cycles
 SCF Done:  E(RPBE-PBE) =  -476.019648941     A.U. after    8 cycles
 SCF Done:  E(RPBE-PBE) =  -476.019720294     A.U. after   12 cycles
 SCF Done:  E(RPBE-PBE) =  -476.019734500     A.U. after   12 cycles
 SCF Done:  E(RPBE-PBE) =  -476.019740016     A.U. after   10 cycles
 SCF Done:  E(RPBE-PBE) =  -476.019737517     A.U. after   10 cycles
 SCF Done:  E(RPBE-PBE) =  -476.019741051     A.U. after   10 cycles
 Optimization completed.
    -- Stationary point found.
 Normal termination of Gaussian 09 at Sat Jun 22 16:47:25 2024.

 ----------------------------------------------------------------------
 #N Geom=AllCheck Guess=TCheck SCRF=Check GenChk RPBEPBE/6-31+G(d,p) Fr
 eq
 ----------------------------------------------------------------------

 Structure from the checkpoint file:  "pbeAnthranilicyang.chk"
 ----------
 [No Title]
 ----------
 Charge =  1 Multiplicity = 1

                         Standard orientation:
 ---------------------------------------------------------------------
 Center     Atomic      Atomic             Coordinates (Angstroms)
 Number     Number       Type             X           Y           Z
 ---------------------------------------------------------------------
      1          6           0        1.961033   -1.467531    0.000036
      2          6           0        2.636757   -0.237622    0.000067
      3          6           0        1.915160    0.968711    0.000054
      4          6           0        0.523268    0.919532    0.000011
      5          6           0       -0.183345   -0.306713   -0.000041
      6          6           0        0.561507   -1.504367   -0.000017
      7          6           0       -1.668652   -0.312467   -0.000145
      8          8           0       -2.220534   -1.523667    0.000054
      9          7           0       -0.269660    2.173220    0.000027
     10          8           0       -2.357560    0.732149   -0.000103
     11          1           0        2.527216   -2.402381    0.000047
     12          1           0        3.729591   -0.209071    0.000108
     13          1           0        2.441735    1.928510    0.000090
     14          1           0        0.030473   -2.458952   -0.000053
     15          1           0       -3.199428   -1.423658    0.000099
     16          1           0       -0.085706    2.750569   -0.834891
     17          1           0       -1.320239    1.826753    0.000083
     18          1           0       -0.085644    2.750579    0.834924
 ---------------------------------------------------------------------

 SCF Done:  E(RPBE-PBE) =  -476.019741051     A.U. after    1 cycles

 The electronic state is 1-A.
 Alpha  occ. eigenvalues --  -19.00248 -18.95978 -14.28757 -10.21590 -10.14451
 Alpha  occ. eigenvalues --  -10.10758 -10.09125 -10.08510 -10.08382 -10.07579
 Alpha  occ. eigenvalues --   -1.19760  -1.11704  -1.08192  -0.95611  -0.87472
 Alpha  occ. eigenvalues --   -0.85135  -0.77652  -0.74477  -0.71769  -0.69516
 Alpha  occ. eigenvalues --   -0.67879  -0.65451  -0.62817  -0.61052  -0.57883
 Alpha  occ. eigenvalues --   -0.57443  -0.56140  -0.55561  -0.51883  -0.50208
 Alpha  occ. eigenvalues --   -0.49255  -0.48006  -0.45610  -0.42404  -0.40826
 Alpha  occ. eigenvalues --   -0.40562
 Alpha virt. eigenvalues --   -0.25964  -0.21963  -0.18445  -0.16414  -0.14218
 Alpha virt. eigenvalues --   -0.12947  -0.11916  -0.10854  -0.09507  -0.08613
 Alpha virt. eigenvalues --   -0.07965  -0.07809  -0.06918  -0.05790  -0.05173

 Mulliken charges:
               1
     1  C    0.035846
     2  C   -0.427816
     3  C    0.527581
     4  C   -1.208733
     5  C    1.325360
     6  C   -0.923479
     7  C    0.688432
     8  O   -0.375929
     9  N   -0.654917
    10  O   -0.418508
    11  H    0.192695
    12  H    0.193615
    13  H    0.180374
    14  H    0.204825
    15  H    0.410779
    16  H    0.406999
    17  H    0.435882
    18  H    0.406995
 Sum of Mulliken charges =   1.00000

 Dipole moment (field-independent basis, Debye):
    X=              0.9330    Y=              3.9620    Z=              0.0002  Tot=              4.0703
 Quadrupole moment (field-independent basis, Debye-Ang):
   XX=            -35.3218   YY=            -29.3049   ZZ=            -56.6657
   XY=              3.4241   XZ=             -0.0001   YZ=              0.0005

  Exact polarizability: 124.328   0.095 105.902   0.002  -0.000  49.478
 Approx polarizability: 244.706  -2.570 219.641   0.004  -0.000  82.009

                      1                      2                      3
                      A                      A                      A
 Frequencies --     91.5323               126.9211               224.6932
 Red. masses --      6.0829                 3.7448                 3.2750
 Frc consts  --      0.0300                 0.0355                 0.0974
 IR Inten    --      5.7833                 1.2195                19.6529

                      4                      5                      6
                      A                      A                      A
 Frequencies --    267.3957               359.8385               374.8923
 Red. masses --      5.2238                 1.1937                 4.0467
 Frc consts  --      0.2201                 0.0911                 0.3351
 IR Inten    --      8.0158                 0.0005                77.1302

                      7                      8                      9
                      A                      A                      A
 Frequencies --    407.9955               427.0330               474.1599
 Red. masses --      3.0020                 7.7880                 3.1183
 Frc consts  --      0.2944                 0.8368                 0.4131
 IR Inten    --      9.7984                 4.1726                 5.4135

                     10                     11                     12
                      A                      A                      A
 Frequencies --    487.7488               547.6230               613.9952
 Red. masses --      4.6081                 6.2763                 1.3305
 Frc consts  --      0.6459                 1.1090                 0.2955
 IR Inten    --      3.3156                 2.8055                61.3260

                     13                     14                     15
                      A                      A                      A
 Frequencies --    642.8245               683.4329               731.8146
 Red. masses --      5.3663                 2.8681                 1.6148
 Frc consts  --      1.3065                 0.7893                 0.5095
 IR Inten    --     89.1509                44.2857                87.2317

                     16                     17                     18
                      A                      A                      A
 Frequencies --    733.1220               778.5058               807.5834
 Red. masses --      4.0524                 2.5342                 5.3636
 Frc consts  --      1.2833                 0.9049                 2.0610
 IR Inten    --     45.0475                 2.2094                12.0794

                     19                     20                     21
                      A                      A                      A
 Frequencies --    863.4065               951.1348               988.3093
 Red. masses --      1.3626                 1.3679                 1.3441
 Frc consts  --      0.5985                 0.7291                 0.7735
 IR Inten    --      0.0938                 0.5412                 0.0006

                     22                     23                     24
                      A                      A                      A
 Frequencies --   1035.2604              1051.3130              1094.4735
 Red. masses --      2.3159                 2.5485                 1.3054
 Frc consts  --      1.4624                 1.6596                 0.9213
 IR Inten    --      7.3047                15.6923                 7.2169

                     25                     26                     27
                      A                      A                      A
 Frequencies --   1094.8461              1145.0020              1163.3342
 Red. masses --      1.8999                 1.6189                 1.8975
 Frc consts  --      1.3418                 1.2505                 1.5130
 IR Inten    --     91.1017                18.2227               113.5399

                     28                     29                     30
                      A                      A                      A
 Frequencies --   1165.2075              1180.3670              1276.9821
 Red. masses --      1.1712                 1.8929                 1.4581
 Frc consts  --      0.9369                 1.5538                 1.4009
 IR Inten    --     61.1215                36.5840                 9.2463

                     31                     32                     33
                      A                      A                      A
 Frequencies --   1368.8935              1387.5851              1426.0026
 Red. masses --      3.2454                 2.6015                 2.2141
 Frc consts  --      3.5831                 2.9512                 2.6527
 IR Inten    --    125.3021               274.4008               221.6144

                     34                     35                     36
                      A                      A                      A
 Frequencies --   1446.2835              1485.9003              1561.5732
 Red. masses --      2.5644                 2.5874                 1.5487
 Frc consts  --      3.1603                 3.3658                 2.2250
 IR Inten    --      4.2422                96.6757                16.0235

                     37                     38                     39
                      A                      A                      A
 Frequencies --   1588.6178              1613.5764              1621.6019
 Red. masses --      2.9359                 1.0425                 4.3784
 Frc consts  --      4.3655                 1.5992                 6.7835
 IR Inten    --     13.4609                35.0380                70.9402

                     40                     41                     42
                      A                      A                      A
 Frequencies --   1672.4881              2312.8077              3130.4701
 Red. masses --      3.4316                 1.1137                 1.0913
 Frc consts  --      5.6555                 3.5101                 6.3008
 IR Inten    --    167.4966               730.9949                 0.5970

                     43                     44                     45
                      A                      A                      A
 Frequencies --   3149.9873              3159.7714              3168.1267
 Red. masses --      1.0897                 1.0940                 1.0965
 Frc consts  --      6.3706                 6.4355                 6.4843
 IR Inten    --      0.1328                 1.4498                 2.6934

                     46                     47                     48
                      A                      A                      A
 Frequencies --   3362.8520              3430.5336              3617.4623
 Red. masses --      1.0510                 1.0943                 1.0648
 Frc consts  --      7.0026                 7.5879                 8.2096
 IR Inten    --     80.1515                89.4678               192.6562

 - Thermochemistry -
 -------------------
 Temperature   298.150 Kelvin.  Pressure   1.00000 Atm.
 Atom     1 has atomic number  6 and mass  12.00000

 Molecular mass:   138.05550 amu.
 Principal axes and moments of inertia in atomic units:
                           1         2         3
     Eigenvalues --   810.406211510.946012311.31718
           X            1.00000  -0.00230  -0.00002
           Y            0.00230   1.00000   0.00000
           Z            0.00002  -0.00000   1.00000
 This molecule is an asymmetric top.
 Rotational symmetry number  1.
 Warning -- assumption of classical behavior for rotation
           may cause significant error
 Rotational temperatures (Kelvin)      0.10688     0.05732     0.03747
 Rotational constants (GHZ):           2.22696     1.19444     0.78083
 Zero-point vibrational energy     372608.5 (Joules/Mol)
                                   89.05558 (Kcal/Mol)
 Warning -- explicit consideration of  12 degrees of freedom as
           vibrations may cause significant error
 Vibrational temperatures:    131.69   182.61   323.28   384.72   517.73
          (Kelvin)            539.39   587.01   614.40   682.21   701.76
                              787.91   883.40   924.88   983.31  1052.92
                             1054.80  1120.09  1161.93  1242.25  1368.47
                             1421.95  1489.51  1512.60  1574.70  1575.24
                             1647.40  1673.78  1676.47  1698.28  1837.29
                             1969.53  1996.42  2051.70  2080.88  2137.88
                             2246.75  2285.66  2321.57  2333.12  2406.33
                             3327.61  4504.04  4532.12  4546.20  4558.22
                             4838.39  4935.77  5204.71

 Zero-point correction=                           0.141919 (Hartree/Particle)
 Thermal correction to Energy=                    0.150281
 Thermal correction to Enthalpy=                  0.151226
 Thermal correction to Gibbs Free Energy=         0.108791
 Sum of electronic and zero-point Energies=           -475.877822
 Sum of electronic and thermal Energies=              -475.869460
 Sum of electronic and thermal Enthalpies=            -475.868515
 Sum of electronic and thermal Free Energies=         -475.910950

                     E (Thermal)             CV                S
                      KCal/Mol        Cal/Mol-Kelvin    Cal/Mol-Kelvin
 Total                   94.303             33.162             89.310
 Electronic               0.000              0.000              0.000
 Translational            0.889              2.981             40.679
 Rotational               0.889              2.981             29.427
 Vibrational             92.526             27.200             19.204
 Vibration     1          0.602              1.955              3.627
 Vibration     2          0.611              1.926              2.992
 Vibration     3          0.649              1.803              1.921
 Vibration     4          0.673              1.733              1.613
 Vibration     5          0.734              1.555              1.123
 Vibration     6          0.746              1.524              1.060
 Vibration     7          0.773              1.453              0.934
 Vibration     8          0.789              1.411              0.868
 Vibration     9          0.831              1.307              0.726
 Vibration    10          0.844              1.277              0.689
 Vibration    11          0.903              1.145              0.549
 Vibration    12          0.973              1.002              0.426

 Optimization completed.
    -- Stationary point found.
 Normal termination of Gaussian 09 at Sat Jun 22 16:48:30 2024.
