 Gaussian 09, Revision E.01,
 Gaussian 09:  ES64L-G09RevE.01 30-Nov-2015

 -----------------------------
 # opt freq wb97xd/6-31+g(d,p)
 -----------------------------

 ----------
 [No Title]
 ----------
 Symbolic Z-matrix:
 Charge =  1 Multiplicity = 1

 SCF Done:  E(RwB97XD) =  -476.420313488     A.U. after   16 cycles
 SCF Done:  E(RwB97XD) =  -476.420675270     A.U. after   12 cycles
 SCF Done:  E(RwB97XD) =  -476.420678976     A.U. after   13 cycles
 SCF Done:  E(RwB97XD) =  -476.420694798     A.U. after   13 cycles
 SCF Done:  E(RwB97XD) =  -476.420698968     A.U. after   10 cycles
 SCF Done:  E(RwB97XD) =  -476.420699060     A.U. after   10 cycles
 SCF Done:  E(RwB97XD) =  -476.420699085     A.U. after   10 cycles
 Optimization completed.
    -- Stationary point found.
 Normal termination of Gaussian 09 at Sat Jun 22 16:53:29 2024.

 ----------------------------------------------------------------------
 #N Geom=AllCheck Guess=TCheck SCRF=Check GenChk RwB97XD/6-31+G(d,p) Fr
 eq
 ----------------------------------------------------------------------

 Structure from the checkpoint file:  "WB97XDAnthranilicyang.chk"
 ----------
 [No Title]
 ----------
 Charge =  1 Multiplicity = 1

                         Standard orientation:
 ---------------------------------------------------------------------
 Center     Atomic      Atomic             Coordinates (Angstroms)
 Number     Number       Type             X           Y           Z
 ---------------------------------------------------------------------
      1          6           0        1.927446   -1.475819   -0.000056
      2          6           0        2.612920   -0.264782    0.000095
      3          6           0        1.910635    0.940459    0.000100
      4          6           0        0.528521    0.906885   -0.000048
      5          6           0       -0.186868   -0.299248   -0.000162
      6          6           0        0.536238   -1.494575   -0.000180
      7          6           0       -1.674167   -0.297158   -0.000203
      8          8           0       -2.217584   -1.494875   -0.000040
      9          7           0       -0.224669    2.176285   -0.000167
     10          8           0       -2.343583    0.734020    0.000565
     11          1           0        2.476118   -2.410689   -0.000057
     12          1           0        3.697119   -0.249951    0.000193
     13          1           0        2.443383    1.886930    0.000173
     14          1           0       -0.000276   -2.436191   -0.000266
     15          1           0       -3.184435   -1.413465    0.000336
     16          1           0       -0.020887    2.739890   -0.828838
     17          1           0       -1.255740    1.902116   -0.000699
     18          1           0       -0.021608    2.739635    0.828857
 ---------------------------------------------------------------------

 SCF Done:  E(RwB97XD) =  -476.420699085     A.U. after    1 cycles

 The electronic state is 1-A.
 Alpha  occ. eigenvalues --  -19.49787 -19.45108 -14.74740 -10.62410 -10.54606
 Alpha  occ. eigenvalues --  -10.50396 -10.48872 -10.48167 -10.48009 -10.47145
 Alpha  occ. eigenvalues --   -1.39770  -1.30917  -1.27895  -1.14012  -1.04868
 Alpha  occ. eigenvalues --   -1.02494  -0.93658  -0.90372  -0.87356  -0.84876
 Alpha  occ. eigenvalues --   -0.83025  -0.80331  -0.77331  -0.75776  -0.72283
 Alpha  occ. eigenvalues --   -0.71539  -0.70202  -0.69380  -0.65449  -0.63374
 Alpha  occ. eigenvalues --   -0.62215  -0.60788  -0.58390  -0.55031  -0.50975
 Alpha  occ. eigenvalues --   -0.50860
 Alpha virt. eigenvalues --   -0.15824  -0.11925  -0.09699  -0.05086  -0.04735
 Alpha virt. eigenvalues --   -0.04509  -0.03148  -0.02742  -0.01858  -0.01132
 Alpha virt. eigenvalues --    0.00201   0.00319   0.01285   0.02017   0.02687

 Mulliken charges:
               1
     1  C   -0.043644
     2  C   -0.420494
     3  C    0.609250
     4  C   -1.234066
     5  C    1.071360
     6  C   -0.671858
     7  C    0.716014
     8  O   -0.441436
     9  N   -0.649208
    10  O   -0.488353
    11  H    0.209255
    12  H    0.210290
    13  H    0.194595
    14  H    0.220843
    15  H    0.428403
    16  H    0.418844
    17  H    0.451352
    18  H    0.418855
 Sum of Mulliken charges =   1.00000

 Dipole moment (field-independent basis, Debye):
    X=              1.1555    Y=              4.3237    Z=             -0.0013  Tot=              4.4754
 Quadrupole moment (field-independent basis, Debye-Ang):
   XX=            -35.9449   YY=            -28.0945   ZZ=            -56.3281
   XY=              3.7756   XZ=              0.0020   YZ=             -0.0030

  Exact polarizability: 113.013  -0.815  99.577  -0.001   0.004  48.016
 Approx polarizability: 121.470  -1.193 118.026  -0.001   0.007  57.068

                      1                      2                      3
                      A                      A                      A
 Frequencies --     86.2532               130.3606               231.1411
 Red. masses --      6.0940                 3.6578                 3.0949
 Frc consts  --      0.0267                 0.0366                 0.0974
 IR Inten    --      6.8922                 1.8514                20.1722

                      4                      5                      6
                      A                      A                      A
 Frequencies --    274.4165               323.6653               370.8890
 Red. masses --      5.2283                 1.2000                 3.8713
 Frc consts  --      0.2320                 0.0741                 0.3138
 IR Inten    --     11.1926                 0.5608                62.5493

                      7                      8                      9
                      A                      A                      A
 Frequencies --    426.0184               432.1958               492.1833
 Red. masses --      3.0371                 8.1109                 3.1185
 Frc consts  --      0.3248                 0.8926                 0.4451
 IR Inten    --      9.2367                 2.7395                 6.4355

                     10                     11                     12
                      A                      A                      A
 Frequencies --    506.2028               568.6035               631.4594
 Red. masses --      4.6066                 6.2898                 1.3073
 Frc consts  --      0.6955                 1.1981                 0.3071
 IR Inten    --      4.3655                 2.8531                67.3112

                     13                     14                     15
                      A                      A                      A
 Frequencies --    665.7514               708.2044               760.9127
 Red. masses --      5.4354                 2.8754                 4.0008
 Frc consts  --      1.4194                 0.8497                 1.3648
 IR Inten    --     78.5634                47.7972                51.4971

                     16                     17                     18
                      A                      A                      A
 Frequencies --    766.6810               814.6568               839.0561
 Red. masses --      1.5709                 2.6944                 5.2509
 Frc consts  --      0.5440                 1.0536                 2.1780
 IR Inten    --    104.8567                 0.2052                13.6184

                     19                     20                     21
                      A                      A                      A
 Frequencies --    910.6075              1004.1792              1044.1810
 Red. masses --      1.3588                 1.3731                 1.3611
 Frc consts  --      0.6639                 0.8158                 0.8743
 IR Inten    --      0.0960                 0.7081                 0.0008

                     22                     23                     24
                      A                      A                      A
 Frequencies --   1073.2693              1090.4498              1131.5664
 Red. masses --      2.2752                 2.0620                 1.3253
 Frc consts  --      1.5441                 1.4446                 0.9998
 IR Inten    --     15.2857                16.8589                 9.6906

                     25                     26                     27
                      A                      A                      A
 Frequencies --   1136.2297              1193.6058              1214.0070
 Red. masses --      2.2567                 1.6078                 1.1663
 Frc consts  --      1.7166                 1.3496                 1.0128
 IR Inten    --     61.0221                 0.0229                 2.6057

                     28                     29                     30
                      A                      A                      A
 Frequencies --   1225.2243              1232.1769              1338.8798
 Red. masses --      1.9450                 2.1981                 1.5437
 Frc consts  --      1.7203                 1.9663                 1.6304
 IR Inten    --    180.1192                38.2242                 1.8859

                     31                     32                     33
                      A                      A                      A
 Frequencies --   1375.5519              1459.8975              1501.8579
 Red. masses --      4.5825                 2.5642                 1.9542
 Frc consts  --      5.1086                 3.2199                 2.5970
 IR Inten    --     27.1445               271.8975               118.5479

                     34                     35                     36
                      A                      A                      A
 Frequencies --   1514.7162              1557.7092              1626.6008
 Red. masses --      1.7194                 2.6267                 1.2572
 Frc consts  --      2.3242                 3.7553                 1.9598
 IR Inten    --    168.7182                75.5280                26.0066

                     37                     38                     39
                      A                      A                      A
 Frequencies --   1665.5002              1686.3657              1702.1833
 Red. masses --      4.3238                 1.0433                 4.4427
 Frc consts  --      7.0666                 1.7481                 7.5842
 IR Inten    --      3.7558                41.0460                52.5415

                     40                     41                     42
                      A                      A                      A
 Frequencies --   1783.0475              2781.9750              3229.4689
 Red. masses --      6.0220                 1.0878                 1.0924
 Frc consts  --     11.2803                 4.9604                 6.7124
 IR Inten    --    300.3532               643.6753                 0.5997

                     43                     44                     45
                      A                      A                      A
 Frequencies --   3250.0109              3260.8270              3269.0410
 Red. masses --      1.0906                 1.0952                 1.0972
 Frc consts  --      6.7874                 6.8612                 6.9087
 IR Inten    --      0.1024                 1.1720                 2.6533

                     46                     47                     48
                      A                      A                      A
 Frequencies --   3486.3047              3557.1163              3813.2102
 Red. masses --      1.0535                 1.0944                 1.0653
 Frc consts  --      7.5445                 8.1589                 9.1262
 IR Inten    --    108.2845               106.6391               226.1935

 - Thermochemistry -
 -------------------
 Temperature   298.150 Kelvin.  Pressure   1.00000 Atm.
 Atom     1 has atomic number  6 and mass  12.00000

 Molecular mass:   138.05550 amu.
 Principal axes and moments of inertia in atomic units:
                           1         2         3
     Eigenvalues --   802.392401490.675872283.17832
           X            1.00000  -0.00100   0.00003
           Y            0.00100   1.00000  -0.00003
           Z           -0.00003   0.00003   1.00000
 This molecule is an asymmetric top.
 Rotational symmetry number  1.
 Warning -- assumption of classical behavior for rotation
           may cause significant error
 Rotational temperatures (Kelvin)      0.10794     0.05810     0.03794
 Rotational constants (GHZ):           2.24920     1.21069     0.79045
 Zero-point vibrational energy     389650.1 (Joules/Mol)
                                   93.12861 (Kcal/Mol)
 Warning -- explicit consideration of  11 degrees of freedom as
           vibrations may cause significant error
 Vibrational temperatures:    124.10   187.56   332.56   394.82   465.68
          (Kelvin)            533.63   612.94   621.83   708.14   728.31
                              818.09   908.53   957.87  1018.95  1094.78
                             1103.08  1172.11  1207.21  1310.16  1444.79
                             1502.34  1544.19  1568.91  1628.07  1634.78
                             1717.33  1746.68  1762.82  1772.83  1926.35
                             1979.11  2100.46  2160.84  2179.34  2241.19
                             2340.31  2396.28  2426.30  2449.06  2565.40
                             4002.64  4646.48  4676.03  4691.60  4703.41
                             5016.01  5117.89  5486.35

 Zero-point correction=                           0.148410 (Hartree/Particle)
 Thermal correction to Energy=                    0.156599
 Thermal correction to Enthalpy=                  0.157543
 Thermal correction to Gibbs Free Energy=         0.115340
 Sum of electronic and zero-point Energies=           -476.272289
 Sum of electronic and thermal Energies=              -476.264100
 Sum of electronic and thermal Enthalpies=            -476.263156
 Sum of electronic and thermal Free Energies=         -476.305359

                     E (Thermal)             CV                S
                      KCal/Mol        Cal/Mol-Kelvin    Cal/Mol-Kelvin
 Total                   98.267             32.044             88.825
 Electronic               0.000              0.000              0.000
 Translational            0.889              2.981             40.679
 Rotational               0.889              2.981             29.392
 Vibrational             96.490             26.082             18.754
 Vibration     1          0.601              1.959              3.743
 Vibration     2          0.612              1.923              2.941
 Vibration     3          0.653              1.793              1.870
 Vibration     4          0.677              1.721              1.568
 Vibration     5          0.708              1.628              1.292
 Vibration     6          0.743              1.532              1.076
 Vibration     7          0.788              1.414              0.872
 Vibration     8          0.793              1.400              0.852
 Vibration     9          0.848              1.267              0.678
 Vibration    10          0.861              1.236              0.643
 Vibration    11          0.925              1.099              0.507

 Optimization completed.
    -- Stationary point found.
 Normal termination of Gaussian 09 at Sat Jun 22 16:55:01 2024.
