 Gaussian 09, Revision E.01,
 Gaussian 09:  ES64L-G09RevE.01 30-Nov-2015

 -----------------------------
 # opt freq wb97xd/6-31+g(d,p)
 -----------------------------

 ----------
 [No Title]
 ----------
 Symbolic Z-matrix:
 Charge =  0 Multiplicity = 1

 SCF Done:  E(RwB97XD) =  -476.063766997     A.U. after   16 cycles
 SCF Done:  E(RwB97XD) =  -476.064087704     A.U. after   13 cycles
 SCF Done:  E(RwB97XD) =  -476.064083697     A.U. after   12 cycles
 SCF Done:  E(RwB97XD) =  -476.064103523     A.U. after   12 cycles
 SCF Done:  E(RwB97XD) =  -476.064107016     A.U. after   11 cycles
 Optimization completed.
    -- Stationary point found.
 Normal termination of Gaussian 09 at Sat Jun 22 16:54:57 2024.

 ----------------------------------------------------------------------
 #N Geom=AllCheck Guess=TCheck SCRF=Check GenChk RwB97XD/6-31+G(d,p) Fr
 eq
 ----------------------------------------------------------------------

 Structure from the checkpoint file:  "WB97XDAnthranilic.chk"
 ----------
 [No Title]
 ----------
 Charge =  0 Multiplicity = 1

                         Standard orientation:
 ---------------------------------------------------------------------
 Center     Atomic      Atomic             Coordinates (Angstroms)
 Number     Number       Type             X           Y           Z
 ---------------------------------------------------------------------
      1          6           0       -1.852918   -1.519471    0.000014
      2          6           0       -2.580336   -0.320755    0.000027
      3          6           0       -1.937899    0.900181    0.000020
      4          6           0       -0.526985    0.984592   -0.000000
      5          6           0        0.210816   -0.229039   -0.000018
      6          6           0       -0.473502   -1.458539   -0.000007
      7          6           0        1.677748   -0.203158   -0.000051
      8          8           0        2.248950   -1.425277    0.000013
      9          7           0        0.074972    2.203419    0.000005
     10          8           0        2.376160    0.801210   -0.000014
     11          1           0       -2.362590   -2.476139    0.000020
     12          1           0       -3.666141   -0.346799    0.000044
     13          1           0       -2.515116    1.820710    0.000033
     14          1           0        0.110567   -2.371654   -0.000020
     15          1           0        3.204055   -1.277956    0.000033
     16          1           0        1.083335    2.258062   -0.000032
     17          1           0       -0.481329    3.039513   -0.000014
 ---------------------------------------------------------------------

 SCF Done:  E(RwB97XD) =  -476.064107016     A.U. after    1 cycles

 The electronic state is 1-A.
 Alpha  occ. eigenvalues --  -19.33089 -19.27346 -14.47002 -10.44532 -10.36871
 Alpha  occ. eigenvalues --  -10.31935 -10.31811 -10.31658 -10.30849 -10.30100
 Alpha  occ. eigenvalues --   -1.22250  -1.12506  -1.03762  -0.95310  -0.87604
 Alpha  occ. eigenvalues --   -0.83893  -0.76277  -0.72131  -0.69137  -0.63139
 Alpha  occ. eigenvalues --   -0.61672  -0.60120  -0.58528  -0.55146  -0.54846
 Alpha  occ. eigenvalues --   -0.52869  -0.51849  -0.49263  -0.48296  -0.45872
 Alpha  occ. eigenvalues --   -0.43919  -0.41735  -0.40604  -0.37182  -0.34204
 Alpha  occ. eigenvalues --   -0.28617
 Alpha virt. eigenvalues --    0.01487   0.06164   0.06559   0.07045   0.07912
 Alpha virt. eigenvalues --    0.09112   0.10241   0.10792   0.11501   0.11933
 Alpha virt. eigenvalues --    0.12553   0.12813   0.14064   0.15543   0.16007

 Mulliken charges:
               1
     1  C   -0.091671
     2  C   -0.472367
     3  C    0.469962
     4  C   -1.031672
     5  C    0.956897
     6  C   -0.617252
     7  C    0.756129
     8  O   -0.494537
     9  N   -0.642989
    10  O   -0.538330
    11  H    0.154910
    12  H    0.156814
    13  H    0.137131
    14  H    0.178265
    15  H    0.395701
    16  H    0.363407
    17  H    0.319604
 Sum of Mulliken charges =   0.00000

 Dipole moment (field-independent basis, Debye):
    X=             -1.1257    Y=              0.4393    Z=             -0.0001  Tot=              1.2084
 Quadrupole moment (field-independent basis, Debye-Ang):
   XX=            -51.4870   YY=            -50.0022   ZZ=            -62.2017
   XY=             -5.4576   XZ=             -0.0001   YZ=             -0.0002

  Exact polarizability: 123.400   4.260 112.583  -0.001   0.000  53.058
 Approx polarizability: 127.943   7.518 129.981  -0.001   0.000  60.495

                      1                      2                      3
                      A                      A                      A
 Frequencies --      4.4333                96.4780               190.3353
 Red. masses --      4.2123                 3.9804                 1.5204
 Frc consts  --      0.0000                 0.0218                 0.0325
 IR Inten    --     61.7820                27.8820                99.7480

                      4                      5                      6
                      A                      A                      A
 Frequencies --    236.4763               263.2919               380.9988
 Red. masses --      3.9110                 5.8585                 5.8697
 Frc consts  --      0.1289                 0.2393                 0.5020
 IR Inten    --      9.9683                 0.8699                 6.5417

                      7                      8                      9
                      A                      A                      A
 Frequencies --    424.0988               430.5811               519.9818
 Red. masses --      5.6556                 3.0489                 4.0487
 Frc consts  --      0.5993                 0.3330                 0.6450
 IR Inten    --      1.2798                 6.1818                 4.6372

                     10                     11                     12
                      A                      A                      A
 Frequencies --    542.0216               574.5031               585.6195
 Red. masses --      2.7773                 6.8790                 1.1992
 Frc consts  --      0.4807                 1.3377                 0.2423
 IR Inten    --     13.5020                 1.4509                99.8793

                     13                     14                     15
                      A                      A                      A
 Frequencies --    613.3830               657.2770               724.2604
 Red. masses --      1.0410                 5.3340                 3.0173
 Frc consts  --      0.2308                 1.3577                 0.9325
 IR Inten    --     14.1519                53.7253                50.9275

                     16                     17                     18
                      A                      A                      A
 Frequencies --    761.8825               768.9554               814.6038
 Red. masses --      4.1205                 1.5026                 3.8511
 Frc consts  --      1.4092                 0.5235                 1.5057
 IR Inten    --     19.6513                62.4402                 4.6768

                     19                     20                     21
                      A                      A                      A
 Frequencies --    873.6359               874.4994               988.5766
 Red. masses --      1.6573                 5.3163                 1.3591
 Frc consts  --      0.7453                 2.3954                 0.7825
 IR Inten    --      3.9976                 7.4733                 1.2111

                     22                     23                     24
                      A                      A                      A
 Frequencies --   1005.8917              1053.0498              1088.9363
 Red. masses --      1.3197                 2.0841                 1.8346
 Frc consts  --      0.7867                 1.3616                 1.2817
 IR Inten    --      0.0000                 5.9881                 9.9308

                     25                     26                     27
                      A                      A                      A
 Frequencies --   1120.9752              1192.3466              1195.5640
 Red. masses --      3.6258                 1.2461                 1.3570
 Frc consts  --      2.6844                 1.0437                 1.1428
 IR Inten    --     88.8036                68.1276               158.8761

                     28                     29                     30
                      A                      A                      A
 Frequencies --   1218.5552              1323.3304              1349.9080
 Red. masses --      1.4971                 1.9796                 2.0513
 Frc consts  --      1.3097                 2.0425                 2.2024
 IR Inten    --    187.0763                 5.6561                56.1545

                     31                     32                     33
                      A                      A                      A
 Frequencies --   1390.1275              1426.2288              1510.1414
 Red. masses --      2.8690                 4.7201                 2.7142
 Frc consts  --      3.2666                 5.6569                 3.6469
 IR Inten    --     61.3196               117.3275                14.9382

                     34                     35                     36
                      A                      A                      A
 Frequencies --   1541.4535              1626.5888              1658.5252
 Red. masses --      2.3550                 2.4721                 2.3053
 Frc consts  --      3.2968                 3.8536                 3.7360
 IR Inten    --     43.3584               102.7701               197.3104

                     37                     38                     39
                      A                      A                      A
 Frequencies --   1698.5993              1797.0893              3203.9809
 Red. masses --      4.5902                 7.8667                 1.0883
 Frc consts  --      7.8030                14.9687                 6.5822
 IR Inten    --    144.0585               456.7967                 9.5960

                     40                     41                     42
                      A                      A                      A
 Frequencies --   3225.9120              3240.0352              3255.3042
 Red. masses --      1.0922                 1.0903                 1.0975
 Frc consts  --      6.6966                 6.7437                 6.8524
 IR Inten    --     14.3451                 3.9173                10.2424

                     43                     44                     45
                      A                      A                      A
 Frequencies --   3618.2077              3785.2179              3858.4501
 Red. masses --      1.0491                 1.1021                 1.0647
 Frc consts  --      8.0920                 9.3037                 9.3392
 IR Inten    --    107.5020                82.9763               113.9123

 - Thermochemistry -
 -------------------
 Temperature   298.150 Kelvin.  Pressure   1.00000 Atm.
 Atom     1 has atomic number  6 and mass  12.00000

 Molecular mass:   137.04768 amu.
 Principal axes and moments of inertia in atomic units:
                           1         2         3
     Eigenvalues --   782.401691481.838352264.24004
           X            0.99999  -0.00436   0.00001
           Y            0.00436   0.99999   0.00000
           Z           -0.00001  -0.00000   1.00000
 This molecule is an asymmetric top.
 Rotational symmetry number  1.
 Warning -- assumption of classical behavior for rotation
           may cause significant error
 Rotational temperatures (Kelvin)      0.11070     0.05845     0.03825
 Rotational constants (GHZ):           2.30667     1.21791     0.79706
 Zero-point vibrational energy     351165.6 (Joules/Mol)
                                   83.93060 (Kcal/Mol)
 Warning -- explicit consideration of  13 degrees of freedom as
           vibrations may cause significant error
 Vibrational temperatures:      6.38   138.81   273.85   340.24   378.82
          (Kelvin)            548.17   610.18   619.51   748.14   779.85
                              826.58   842.57   882.52   945.67  1042.05
                             1096.18  1106.35  1172.03  1256.97  1258.21
                             1422.34  1447.25  1515.10  1566.73  1612.83
                             1715.52  1720.15  1753.23  1903.97  1942.21
                             2000.08  2052.02  2172.75  2217.80  2340.30
                             2386.24  2443.90  2585.61  4609.81  4641.36
                             4661.68  4683.65  5205.79  5446.08  5551.44

 Zero-point correction=                           0.133752 (Hartree/Particle)
 Thermal correction to Energy=                    0.142466
 Thermal correction to Enthalpy=                  0.143410
 Thermal correction to Gibbs Free Energy=         0.097585
 Sum of electronic and zero-point Energies=           -475.930355
 Sum of electronic and thermal Energies=              -475.921641
 Sum of electronic and thermal Enthalpies=            -475.920697
 Sum of electronic and thermal Free Energies=         -475.966522

                     E (Thermal)             CV                S
                      KCal/Mol        Cal/Mol-Kelvin    Cal/Mol-Kelvin
 Total                   89.399             32.946             96.448
 Electronic               0.000              0.000              0.000
 Translational            0.889              2.981             40.657
 Rotational               0.889              2.981             29.353
 Vibrational             87.621             26.985             26.438
 Vibration     1          0.593              1.987              9.627
 Vibration     2          0.603              1.952              3.524
 Vibration     3          0.634              1.853              2.225
 Vibration     4          0.655              1.785              1.829
 Vibration     5          0.670              1.740              1.640
 Vibration     6          0.751              1.511              1.035
 Vibration     7          0.786              1.418              0.878
 Vibration     8          0.792              1.404              0.857
 Vibration     9          0.875              1.206              0.610
 Vibration    10          0.897              1.157              0.561
 Vibration    11          0.931              1.086              0.496
 Vibration    12          0.943              1.062              0.475
 Vibration    13          0.973              1.004              0.427

 Optimization completed.
    -- Stationary point found.
 Normal termination of Gaussian 09 at Sat Jun 22 16:56:37 2024.
