 Gaussian 09, Revision E.01,
 Gaussian 09:  ES64L-G09RevE.01 30-Nov-2015

 -------------------------------------------------------
 # opt freq B2PLYP/6-31+g(d,p) empiricaldispersion=gd3bj
 -------------------------------------------------------

 ----------
 [No Title]
 ----------
 Symbolic Z-matrix:
 Charge =  0 Multiplicity = 1

 SCF Done:  E(RB2PLYP) =  -570.230109417     A.U. after   16 cycles
 E2(B2PLYP) =    -0.5495517773D+00 E(B2PLYP) =    -0.57077966119470D+03
 SCF Done:  E(RB2PLYP) =  -570.230126267     A.U. after   11 cycles
 E2(B2PLYP) =    -0.5495995794D+00 E(B2PLYP) =    -0.57077972584658D+03
 SCF Done:  E(RB2PLYP) =  -570.230112767     A.U. after   10 cycles
 E2(B2PLYP) =    -0.5496256821D+00 E(B2PLYP) =    -0.57077973844948D+03
 SCF Done:  E(RB2PLYP) =  -570.230087881     A.U. after    9 cycles
 E2(B2PLYP) =    -0.5496507162D+00 E(B2PLYP) =    -0.57077973859744D+03
 SCF Done:  E(RB2PLYP) =  -570.230069272     A.U. after   10 cycles
 E2(B2PLYP) =    -0.5496690829D+00 E(B2PLYP) =    -0.57077973835476D+03
 SCF Done:  E(RB2PLYP) =  -570.230085437     A.U. after    9 cycles
 E2(B2PLYP) =    -0.5496534798D+00 E(B2PLYP) =    -0.57077973891651D+03
 Optimization completed.
    -- Stationary point found.
 Normal termination of Gaussian 09 at Tue Dec 17 21:45:56 2024.

 ----------------------------------------------------------------------
 #N Geom=AllCheck Guess=TCheck SCRF=Check GenChk RB2PLYP(FC)/6-31+G(d,p
 ) Freq
 ----------------------------------------------------------------------

 Structure from the checkpoint file:  "B2PLYPD3BJDHB.chk"
 ----------
 [No Title]
 ----------
 Charge =  0 Multiplicity = 1

                         Standard orientation:
 ---------------------------------------------------------------------
 Center     Atomic      Atomic             Coordinates (Angstroms)
 Number     Number       Type             X           Y           Z
 ---------------------------------------------------------------------
      1          6           0        0.235626    1.272079    0.000010
      2          6           0        0.466352   -0.121072   -0.000015
      3          6           0       -0.630701   -0.997456   -0.000009
      4          6           0       -1.935528   -0.516060    0.000011
      5          6           0       -2.162597    0.862140    0.000028
      6          6           0       -1.082168    1.741994    0.000036
      7          8           0       -2.950418   -1.443294   -0.000004
      8          6           0        1.843613   -0.675029   -0.000064
      9          8           0        1.845884   -2.042437    0.000222
     10          8           0        2.881982   -0.040826   -0.000295
     11          8           0        1.292595    2.133420    0.000031
     12          1           0       -0.463269   -2.064780   -0.000024
     13          1           0       -3.174474    1.254507    0.000039
     14          1           0       -1.264821    2.811784    0.000058
     15          1           0       -3.804363   -0.994277    0.000099
     16          1           0        2.781246   -2.301035    0.000144
     17          1           0        0.957762    3.039315    0.000068
 ---------------------------------------------------------------------

 SCF Done:  E(RB2PLYP) =  -570.230085437     A.U. after    1 cycles
 E2(B2PLYP) =    -0.5496534728D+00 E(B2PLYP) =    -0.57077973890945D+03
 E2(B2PLYP) =    -0.5496534728D+00 E(B2PLYP) =    -0.57077973890945D+03

 The electronic state is 1-A.
 Alpha  occ. eigenvalues --  -19.79669 -19.78991 -19.78876 -19.73784 -10.77801
 Alpha  occ. eigenvalues --  -10.71793 -10.70695 -10.66189 -10.66154 -10.65551
 Alpha  occ. eigenvalues --  -10.65046  -1.25567  -1.21972  -1.21596  -1.15754
 Alpha  occ. eigenvalues --   -0.99773  -0.90368  -0.86729  -0.77757  -0.74027
 Alpha  occ. eigenvalues --   -0.69971  -0.64626  -0.63355  -0.59123  -0.57480
 Alpha  occ. eigenvalues --   -0.56598  -0.53253  -0.53082  -0.50827  -0.49892
 Alpha  occ. eigenvalues --   -0.49824  -0.48042  -0.47523  -0.45185  -0.43665
 Alpha  occ. eigenvalues --   -0.39278  -0.38742  -0.34877  -0.31772  -0.26438
 Alpha virt. eigenvalues --   -0.01059   0.01741   0.02542   0.03941   0.04391
 Alpha virt. eigenvalues --    0.04995   0.07233   0.07790   0.07846   0.09064
 Alpha virt. eigenvalues --    0.09912   0.10485   0.10635   0.12291   0.12335

 Mulliken charges:
               1
     1  C   -0.894371
     2  C    0.556958
     3  C   -0.044607
     4  C   -0.343498
     5  C    0.181836
     6  C    0.149819
     7  O   -0.563990
     8  C    0.897481
     9  O   -0.531866
    10  O   -0.495829
    11  O   -0.506781
    12  H    0.192477
    13  H    0.138810
    14  H    0.134180
    15  H    0.362559
    16  H    0.397052
    17  H    0.369771
 Sum of Mulliken charges =  -0.00000

 Dipole moment (field-independent basis, Debye):
    X=             -3.9279    Y=              1.8346    Z=              0.0005  Tot=              4.3353
 Quadrupole moment (field-independent basis, Debye-Ang):
   XX=            -59.1829   YY=            -53.6446   ZZ=            -65.8357
   XY=            -10.9373   XZ=              0.0007   YZ=              0.0009

  Exact polarizability: 128.331  -0.358 110.720  -0.002  -0.001  52.030
 Approx polarizability: 144.289   4.380 133.174  -0.003  -0.001  64.551

 ******    1 imaginary frequencies (negative Signs) ******

                      1                      2                      3
                      A                      A                      A
 Frequencies --    -29.5361               116.0534               160.8784
 Red. masses --     11.6834                 5.4759                 5.7467
 Frc consts  --      0.0060                 0.0435                 0.0876
 IR Inten    --      1.6583                 3.5744                 2.5259

                      4                      5                      6
                      A                      A                      A
 Frequencies --    200.3231               226.5157               321.7006
 Red. masses --      7.7026                 1.0939                 1.1449
 Frc consts  --      0.1821                 0.0331                 0.0698
 IR Inten    --      3.1832               111.5800               100.3869

                      7                      8                      9
                      A                      A                      A
 Frequencies --    324.1570               351.2818               395.9617
 Red. masses --      6.8541                 5.5904                 7.9650
 Frc consts  --      0.4243                 0.4064                 0.7358
 IR Inten    --      0.6568                 3.3521                 3.4295

                     10                     11                     12
                      A                      A                      A
 Frequencies --    403.3721               411.1798               483.4671
 Red. masses --      7.0760                 3.2155                 8.0456
 Frc consts  --      0.6783                 0.3203                 1.1080
 IR Inten    --      1.7196                 4.8248                 1.1174

                     13                     14                     15
                      A                      A                      A
 Frequencies --    524.4153               546.7463               548.6972
 Red. masses --      3.4150                 4.0406                 3.1206
 Frc consts  --      0.5533                 0.7116                 0.5535
 IR Inten    --      6.2493                36.5455                10.0393

                     16                     17                     18
                      A                      A                      A
 Frequencies --    588.6439               662.0658               733.6423
 Red. masses --      1.5460                 4.9418                 5.6877
 Frc consts  --      0.3156                 1.2762                 1.8037
 IR Inten    --    109.5437                45.1493                19.6475

                     19                     20                     21
                      A                      A                      A
 Frequencies --    765.2006               789.4246               802.8432
 Red. masses --      7.6744                 1.4647                 5.9544
 Frc consts  --      2.6476                 0.5378                 2.2613
 IR Inten    --     18.8661                52.8128                54.6539

                     22                     23                     24
                      A                      A                      A
 Frequencies --    856.4389               902.8748               958.0997
 Red. masses --      1.2041                 1.3164                 5.5906
 Frc consts  --      0.5203                 0.6323                 3.0237
 IR Inten    --     10.9440                 4.3574                12.9529

                     25                     26                     27
                      A                      A                      A
 Frequencies --   1068.1202              1158.1513              1185.6687
 Red. masses --      3.7831                 1.8136                 1.4738
 Frc consts  --      2.5430                 1.4332                 1.2207
 IR Inten    --    130.5441                63.5234               289.6260

                     28                     29                     30
                      A                      A                      A
 Frequencies --   1201.9387              1207.6780              1284.8037
 Red. masses --      1.2695                 1.2109                 2.0302
 Frc consts  --      1.0806                 1.0406                 1.9745
 IR Inten    --     13.7585               184.8675                39.0835

                     31                     32                     33
                      A                      A                      A
 Frequencies --   1310.5748              1339.3547              1366.6599
 Red. masses --      7.3864                 1.4861                 2.8138
 Frc consts  --      7.4749                 1.5707                 3.0965
 IR Inten    --      5.3751               213.4580               136.1179

                     34                     35                     36
                      A                      A                      A
 Frequencies --   1406.7378              1493.6727              1551.9675
 Red. masses --      5.1507                 3.2872                 2.9906
 Frc consts  --      6.0054                 4.3210                 4.2439
 IR Inten    --      5.0058                22.7731               173.5257

                     37                     38                     39
                      A                      A                      A
 Frequencies --   1653.2232              1684.2660              1792.3381
 Red. masses --      6.4898                 6.4159                 9.7410
 Frc consts  --     10.4506                10.7234                18.4372
 IR Inten    --     62.1990                 6.2462               360.1553

                     40                     41                     42
                      A                      A                      A
 Frequencies --   3200.8337              3216.7463              3276.2404
 Red. masses --      1.0877                 1.0955                 1.0915
 Frc consts  --      6.5658                 6.6787                 6.9026
 IR Inten    --     14.8033                 9.5176                 3.0722

                     43                     44                     45
                      A                      A                      A
 Frequencies --   3789.7480              3837.6692              3856.7463
 Red. masses --      1.0646                 1.0662                 1.0665
 Frc consts  --      9.0090                 9.2515                 9.3462
 IR Inten    --     98.9609                61.2842                66.7560

 - Thermochemistry -
 -------------------
 Temperature   298.150 Kelvin.  Pressure   1.00000 Atm.
 Atom     1 has atomic number  6 and mass  12.00000

 Molecular mass:   154.02661 amu.
 Principal axes and moments of inertia in atomic units:
                           1         2         3
     Eigenvalues --  1027.486041973.227473000.71349
           X            0.99972  -0.02371   0.00002
           Y            0.02371   0.99972   0.00001
           Z           -0.00002  -0.00001   1.00000
 This molecule is an asymmetric top.
 Rotational symmetry number  1.
 Warning -- assumption of classical behavior for rotation
           may cause significant error
 Rotational temperatures (Kelvin)      0.08430     0.04389     0.02886
 Rotational constants (GHZ):           1.75646     0.91461     0.60144
    1 imaginary frequencies ignored.
 Zero-point vibrational energy     322735.3 (Joules/Mol)
                                   77.13558 (Kcal/Mol)
 Warning -- explicit consideration of  15 degrees of freedom as
           vibrations may cause significant error
 Vibrational temperatures:    166.97   231.47   288.22   325.91   462.85
          (Kelvin)            466.39   505.42   569.70   580.36   591.60
                              695.60   754.52   786.64   789.45   846.93
                              952.56  1055.55  1100.95  1135.80  1155.11
                             1232.22  1299.03  1378.49  1536.78  1666.32
                             1705.91  1729.32  1737.58  1848.54  1885.62
                             1927.03  1966.32  2023.98  2149.06  2232.93
                             2378.62  2423.28  2578.77  4605.28  4628.17
                             4713.77  5452.60  5521.54  5548.99

 Zero-point correction=                           0.122923 (Hartree/Particle)
 Thermal correction to Energy=                    0.132019
 Thermal correction to Enthalpy=                  0.132963
 Thermal correction to Gibbs Free Energy=         0.089014
 Sum of electronic and zero-point Energies=           -570.656816
 Sum of electronic and thermal Energies=              -570.647720
 Sum of electronic and thermal Enthalpies=            -570.646776
 Sum of electronic and thermal Free Energies=         -570.690725

                     E (Thermal)             CV                S
                      KCal/Mol        Cal/Mol-Kelvin    Cal/Mol-Kelvin
 Total                   82.843             35.711             92.498
 Electronic               0.000              0.000              0.000
 Translational            0.889              2.981             41.006
 Rotational               0.889              2.981             30.188
 Vibrational             81.066             29.750             21.305
 Vibration     1          0.608              1.936              3.165
 Vibration     2          0.622              1.890              2.539
 Vibration     3          0.638              1.839              2.130
 Vibration     4          0.650              1.801              1.906
 Vibration     5          0.707              1.632              1.301
 Vibration     6          0.709              1.627              1.289
 Vibration     7          0.728              1.573              1.160
 Vibration     8          0.763              1.479              0.978
 Vibration     9          0.769              1.463              0.950
 Vibration    10          0.775              1.446              0.922
 Vibration    11          0.840              1.287              0.701
 Vibration    12          0.879              1.196              0.600
 Vibration    13          0.902              1.147              0.551
 Vibration    14          0.904              1.143              0.547
 Vibration    15          0.946              1.056              0.470

 Optimization completed.
    -- Stationary point found.
 Normal termination of Gaussian 09 at Tue Dec 17 21:57:49 2024.
