 Gaussian 09, Revision E.01,
 Gaussian 09:  ES64L-G09RevE.01 30-Nov-2015

 -------------------------------------------------------
 # opt freq B2PLYP/6-31+g(d,p) EmpiricalDispersion=GD3BJ
 -------------------------------------------------------

 ----------
 [No Title]
 ----------
 Symbolic Z-matrix:
 Charge =  1 Multiplicity = 1

 SCF Done:  E(RB2PLYP) =  -570.564915161     A.U. after   16 cycles
 E2(B2PLYP) =    -0.5442986371D+00 E(B2PLYP) =    -0.57110921379761D+03
 SCF Done:  E(RB2PLYP) =  -570.564405553     A.U. after   12 cycles
 E2(B2PLYP) =    -0.5449570068D+00 E(B2PLYP) =    -0.57110936256018D+03
 SCF Done:  E(RB2PLYP) =  -570.564280941     A.U. after   11 cycles
 E2(B2PLYP) =    -0.5450968100D+00 E(B2PLYP) =    -0.57110937775092D+03
 SCF Done:  E(RB2PLYP) =  -570.564324869     A.U. after   10 cycles
 E2(B2PLYP) =    -0.5450593188D+00 E(B2PLYP) =    -0.57110938418759D+03
 SCF Done:  E(RB2PLYP) =  -570.564342447     A.U. after    8 cycles
 E2(B2PLYP) =    -0.5450419705D+00 E(B2PLYP) =    -0.57110938441747D+03
 Optimization completed.
    -- Stationary point found.
 Normal termination of Gaussian 09 at Tue Dec 17 22:13:59 2024.

 ----------------------------------------------------------------------
 #N Geom=AllCheck Guess=TCheck SCRF=Check GenChk RB2PLYP(FC)/6-31+G(d,p
 ) Freq
 ----------------------------------------------------------------------

 Structure from the checkpoint file:  "B2PLYPD3BJDHByang.chk"
 ----------
 [No Title]
 ----------
 Charge =  1 Multiplicity = 1

                         Standard orientation:
 ---------------------------------------------------------------------
 Center     Atomic      Atomic             Coordinates (Angstroms)
 Number     Number       Type             X           Y           Z
 ---------------------------------------------------------------------
      1          6           0        0.220443    1.273556   -0.000009
      2          6           0        0.422914   -0.138486    0.000003
      3          6           0       -0.695966   -1.016020    0.000015
      4          6           0       -1.982217   -0.510702    0.000020
      5          6           0       -2.173150    0.887583    0.000015
      6          6           0       -1.093182    1.757792   -0.000002
      7          8           0       -3.003321   -1.402201    0.000038
      8          6           0        1.720065   -0.719099   -0.000008
      9          8           0        1.802535   -2.030152   -0.000135
     10          8           0        2.786871    0.033764    0.000113
     11          8           0        1.288925    2.090906   -0.000041
     12          1           0       -0.552218   -2.087108    0.000028
     13          1           0       -3.178421    1.295516    0.000023
     14          1           0       -1.266168    2.827888   -0.000010
     15          1           0       -3.864051   -0.963144    0.000032
     16          1           0        2.702291   -2.395015   -0.000036
     17          1           0        3.633685   -0.443141    0.000007
     18          1           0        1.011360    3.018722   -0.000050
 ---------------------------------------------------------------------

 SCF Done:  E(RB2PLYP) =  -570.564342447     A.U. after    1 cycles
 E2(B2PLYP) =    -0.5450419673D+00 E(B2PLYP) =    -0.57110938441431D+03
 E2(B2PLYP) =    -0.5450419673D+00 E(B2PLYP) =    -0.57110938441431D+03

 The electronic state is 1-A.
 Alpha  occ. eigenvalues --  -20.02253 -20.02183 -19.94774 -19.91470 -11.01461
 Alpha  occ. eigenvalues --  -10.88600 -10.84992 -10.82719 -10.81380 -10.80323
 Alpha  occ. eigenvalues --  -10.79876  -1.50448  -1.42046  -1.38237  -1.34787
 Alpha  occ. eigenvalues --   -1.15606  -1.08268  -1.02059  -0.98140  -0.92637
 Alpha  occ. eigenvalues --   -0.89149  -0.87165  -0.81674  -0.79218  -0.76398
 Alpha  occ. eigenvalues --   -0.75728  -0.74426  -0.70722  -0.67602  -0.65977
 Alpha  occ. eigenvalues --   -0.65697  -0.65483  -0.64082  -0.64074  -0.62156
 Alpha  occ. eigenvalues --   -0.59227  -0.57186  -0.53738  -0.47633  -0.40893
 Alpha virt. eigenvalues --   -0.20683  -0.14365  -0.10045  -0.09015  -0.08092
 Alpha virt. eigenvalues --   -0.07044  -0.06435  -0.06431  -0.05328  -0.04724
 Alpha virt. eigenvalues --   -0.03031  -0.02018  -0.01412  -0.00558   0.00089

 Mulliken charges:
               1
     1  C   -0.601925
     2  C    0.231673
     3  C    0.014538
     4  C   -0.394601
     5  C    0.262273
     6  C    0.145786
     7  O   -0.537105
     8  C    1.049068
     9  O   -0.432961
    10  O   -0.428732
    11  O   -0.526400
    12  H    0.208995
    13  H    0.183172
    14  H    0.176276
    15  H    0.384109
    16  H    0.414606
    17  H    0.430716
    18  H    0.420511
 Sum of Mulliken charges =   1.00000

 Dipole moment (field-independent basis, Debye):
    X=              3.9951    Y=              0.3165    Z=             -0.0000  Tot=              4.0076
 Quadrupole moment (field-independent basis, Debye-Ang):
   XX=            -14.5813   YY=            -41.1303   ZZ=            -63.9798
   XY=            -18.0141   XZ=             -0.0004   YZ=             -0.0005

  Exact polarizability: 138.907  -9.357 114.031  -0.000   0.000  47.095
 Approx polarizability: 155.291  -9.141 138.433  -0.000   0.001  59.443

 ******    1 imaginary frequencies (negative Signs) ******

                      1                      2                      3
                      A                      A                      A
 Frequencies --    -63.4563               103.2907               146.4624
 Red. masses --     11.6918                 5.0044                 5.2100
 Frc consts  --      0.0277                 0.0315                 0.0658
 IR Inten    --      0.0031                15.3607                 4.1233

                      4                      5                      6
                      A                      A                      A
 Frequencies --    213.4184               274.7973               277.5564
 Red. masses --      6.2909                 1.1098                 1.1269
 Frc consts  --      0.1688                 0.0494                 0.0512
 IR Inten    --     10.0232                35.6189               115.2996

                      7                      8                      9
                      A                      A                      A
 Frequencies --    341.3231               342.1528               392.2721
 Red. masses --      6.2438                 4.3070                 7.4699
 Frc consts  --      0.4286                 0.2971                 0.6772
 IR Inten    --      0.3241                 0.0623                 0.6874

                     10                     11                     12
                      A                      A                      A
 Frequencies --    403.7913               409.5038               410.7719
 Red. masses --      2.3838                 1.1479                 5.9521
 Frc consts  --      0.2290                 0.1134                 0.5917
 IR Inten    --      9.3518                85.7417                 0.8304

                     13                     14                     15
                      A                      A                      A
 Frequencies --    478.0322               496.7146               521.1032
 Red. masses --      7.9156                 1.3597                 3.2187
 Frc consts  --      1.0657                 0.1976                 0.5150
 IR Inten    --      2.1109               189.5480                93.6940

                     16                     17                     18
                      A                      A                      A
 Frequencies --    562.7787               597.7022               654.4434
 Red. masses --      4.0572                 6.3483                 4.2512
 Frc consts  --      0.7571                 1.3362                 1.0728
 IR Inten    --     19.8190                14.5351                48.7015

                     19                     20                     21
                      A                      A                      A
 Frequencies --    734.7131               737.8444               811.4446
 Red. masses --      5.4580                 9.1878                 5.8813
 Frc consts  --      1.7359                 2.9471                 2.2816
 IR Inten    --     14.0139                 0.7848                44.3684

                     22                     23                     24
                      A                      A                      A
 Frequencies --    821.4904               840.2813               941.5690
 Red. masses --      1.4347                 1.3027                 1.2839
 Frc consts  --      0.5704                 0.5420                 0.6706
 IR Inten    --     45.0690                20.0567                 0.5588

                     25                     26                     27
                      A                      A                      A
 Frequencies --    968.7172              1097.6172              1128.2581
 Red. masses --      4.7123                 3.1564                 1.1271
 Frc consts  --      2.6054                 2.2405                 0.8454
 IR Inten    --     24.7414               172.1382               177.0206

                     28                     29                     30
                      A                      A                      A
 Frequencies --   1158.8690              1196.0989              1206.2522
 Red. masses --      1.7577                 1.4189                 1.2347
 Frc consts  --      1.3908                 1.1961                 1.0585
 IR Inten    --    146.8298               284.2094                77.8950

                     31                     32                     33
                      A                      A                      A
 Frequencies --   1213.7444              1303.5213              1331.3183
 Red. masses --      1.2160                 1.8877                 9.7520
 Frc consts  --      1.0555                 1.8898                10.1837
 IR Inten    --    156.8060                17.4331                87.1859

                     34                     35                     36
                      A                      A                      A
 Frequencies --   1348.7373              1439.4829              1462.0862
 Red. masses --      1.6996                 5.1275                 3.2109
 Frc consts  --      1.8216                 6.2600                 4.0441
 IR Inten    --    232.2740                85.8350                11.0227

                     37                     38                     39
                      A                      A                      A
 Frequencies --   1514.5350              1563.4617              1617.1402
 Red. masses --      4.6320                 3.7754                 4.3751
 Frc consts  --      6.2601                 5.4373                 6.7412
 IR Inten    --     69.5449               488.6667               539.1254

                     40                     41                     42
                      A                      A                      A
 Frequencies --   1629.5362              1695.2965              3221.6593
 Red. masses --      5.7898                 6.1442                 1.0897
 Frc consts  --      9.0583                10.4042                 6.6638
 IR Inten    --    251.2069                64.1493                 2.3170

                     43                     44                     45
                      A                      A                      A
 Frequencies --   3235.0047              3275.2239              3767.0557
 Red. masses --      1.0961                 1.0922                 1.0682
 Frc consts  --      6.7587                 6.9032                 8.9308
 IR Inten    --      0.3907                 8.1473               131.0681

                     46                     47                     48
                      A                      A                      A
 Frequencies --   3785.7148              3812.1369              3843.7500
 Red. masses --      1.0669                 1.0667                 1.0671
 Frc consts  --      9.0084                 9.1336                 9.2888
 IR Inten    --    489.8469               166.6852               136.3997

 - Thermochemistry -
 -------------------
 Temperature   298.150 Kelvin.  Pressure   1.00000 Atm.
 Atom     1 has atomic number  6 and mass  12.00000

 Molecular mass:   155.03443 amu.
 Principal axes and moments of inertia in atomic units:
                           1         2         3
     Eigenvalues --  1018.727361993.750763012.47811
           X            0.99959  -0.02853   0.00001
           Y            0.02853   0.99959  -0.00001
           Z           -0.00001   0.00001   1.00000
 This molecule is an asymmetric top.
 Rotational symmetry number  1.
 Warning -- assumption of classical behavior for rotation
           may cause significant error
 Rotational temperatures (Kelvin)      0.08502     0.04344     0.02875
 Rotational constants (GHZ):           1.77156     0.90520     0.59909
    1 imaginary frequencies ignored.
 Zero-point vibrational energy     354864.3 (Joules/Mol)
                                   84.81460 (Kcal/Mol)
 Warning -- explicit consideration of  16 degrees of freedom as
           vibrations may cause significant error
 Vibrational temperatures:    148.61   210.73   307.06   395.37   399.34
          (Kelvin)            491.09   492.28   564.39   580.96   589.18
                              591.01   687.78   714.66   749.75   809.71
                              859.96   941.60  1057.09  1061.59  1167.49
                             1181.94  1208.98  1354.71  1393.77  1579.22
                             1623.31  1667.35  1720.92  1735.53  1746.31
                             1875.47  1915.47  1940.53  2071.09  2103.61
                             2179.08  2249.47  2326.70  2344.54  2439.15
                             4635.24  4654.44  4712.31  5419.95  5446.79
                             5484.81  5530.29

 Zero-point correction=                           0.135161 (Hartree/Particle)
 Thermal correction to Energy=                    0.144603
 Thermal correction to Enthalpy=                  0.145547
 Thermal correction to Gibbs Free Energy=         0.101011
 Sum of electronic and zero-point Energies=           -570.974224
 Sum of electronic and thermal Energies=              -570.964782
 Sum of electronic and thermal Enthalpies=            -570.963837
 Sum of electronic and thermal Free Energies=         -571.008374

                     E (Thermal)             CV                S
                      KCal/Mol        Cal/Mol-Kelvin    Cal/Mol-Kelvin
 Total                   90.740             37.367             93.735
 Electronic               0.000              0.000              0.000
 Translational            0.889              2.981             41.025
 Rotational               0.889              2.981             30.193
 Vibrational             88.962             31.405             22.516
 Vibration     1          0.605              1.947              3.391
 Vibration     2          0.617              1.907              2.718
 Vibration     3          0.644              1.820              2.014
 Vibration     4          0.677              1.720              1.566
 Vibration     5          0.679              1.715              1.549
 Vibration     6          0.721              1.593              1.206
 Vibration     7          0.721              1.591              1.202
 Vibration     8          0.760              1.487              0.991
 Vibration     9          0.769              1.462              0.949
 Vibration    10          0.774              1.450              0.928
 Vibration    11          0.775              1.447              0.924
 Vibration    12          0.835              1.299              0.715
 Vibration    13          0.852              1.257              0.666
 Vibration    14          0.876              1.203              0.607
 Vibration    15          0.919              1.112              0.518
 Vibration    16          0.956              1.037              0.454

 Optimization completed.
    -- Stationary point found.
 Normal termination of Gaussian 09 at Tue Dec 17 22:34:43 2024.
