 Gaussian 09, Revision E.01,
 Gaussian 09:  ES64L-G09RevE.01 30-Nov-2015

 -------------------------------------
 # opt freq b3lyp/6-31+g(d,p) em=gd3bj
 -------------------------------------

 ----------
 [No Title]
 ----------
 Symbolic Z-matrix:
 Charge =  0 Multiplicity = 1

 SCF Done:  E(RB3LYP) =  -571.325319661     A.U. after   15 cycles
 SCF Done:  E(RB3LYP) =  -571.325695896     A.U. after   11 cycles
 SCF Done:  E(RB3LYP) =  -571.325706910     A.U. after   10 cycles
 SCF Done:  E(RB3LYP) =  -571.325695316     A.U. after   11 cycles
 SCF Done:  E(RB3LYP) =  -571.325709438     A.U. after   11 cycles
 Optimization completed.
    -- Stationary point found.
 Normal termination of Gaussian 09 at Mon May 20 12:57:36 2024.

 ----------------------------------------------------------------------
 #N Geom=AllCheck Guess=TCheck SCRF=Check GenChk RB3LYP/6-31+G(d,p) Fre
 q
 ----------------------------------------------------------------------

 Structure from the checkpoint file:  "lw+b3lypDHB.chk"
 ----------
 [No Title]
 ----------
 Charge =  0 Multiplicity = 1

                         Standard orientation:
 ---------------------------------------------------------------------
 Center     Atomic      Atomic             Coordinates (Angstroms)
 Number     Number       Type             X           Y           Z
 ---------------------------------------------------------------------
      1          6           0        0.233882    1.273568    0.000034
      2          6           0        0.467697   -0.120188    0.000067
      3          6           0       -0.629033   -0.997460    0.000054
      4          6           0       -1.935095   -0.520615   -0.000001
      5          6           0       -2.163289    0.857980   -0.000039
      6          6           0       -1.085706    1.739758   -0.000010
      7          8           0       -2.949297   -1.447046   -0.000050
      8          6           0        1.845630   -0.672746    0.000105
      9          8           0        1.853973   -2.039265    0.000080
     10          8           0        2.881291   -0.039587   -0.000264
     11          8           0        1.284941    2.138137    0.000064
     12          1           0       -0.457941   -2.065790    0.000088
     13          1           0       -3.177738    1.249085   -0.000094
     14          1           0       -1.270846    2.811050   -0.000032
     15          1           0       -3.805703   -1.001000    0.000175
     16          1           0        2.789816   -2.298008   -0.000104
     17          1           0        0.950632    3.044979    0.000063
 ---------------------------------------------------------------------

 SCF Done:  E(RB3LYP) =  -571.325709438     A.U. after    1 cycles

 The electronic state is 1-A.
 Alpha  occ. eigenvalues --  -19.20274 -19.19978 -19.19910 -19.14545 -10.32918
 Alpha  occ. eigenvalues --  -10.27624 -10.26726 -10.22320 -10.22219 -10.21764
 Alpha  occ. eigenvalues --  -10.21035  -1.11034  -1.08093  -1.07662  -1.01826
 Alpha  occ. eigenvalues --   -0.87476  -0.78953  -0.75790  -0.68058  -0.64918
 Alpha  occ. eigenvalues --   -0.61621  -0.56648  -0.55843  -0.51129  -0.49593
 Alpha  occ. eigenvalues --   -0.48245  -0.45883  -0.45812  -0.43945  -0.42798
 Alpha  occ. eigenvalues --   -0.42291  -0.40777  -0.40094  -0.38042  -0.37035
 Alpha  occ. eigenvalues --   -0.32865  -0.32511  -0.27975  -0.27885  -0.22695
 Alpha virt. eigenvalues --   -0.06285  -0.01468  -0.01053  -0.00866   0.00739
 Alpha virt. eigenvalues --    0.01812   0.03955   0.04243   0.04980   0.05358
 Alpha virt. eigenvalues --    0.06293   0.07714   0.08014   0.08767   0.09218

 Mulliken charges:
               1
     1  C   -0.940407
     2  C    0.580413
     3  C   -0.129948
     4  C   -0.225293
     5  C    0.160656
     6  C    0.128146
     7  O   -0.537985
     8  C    0.883895
     9  O   -0.486594
    10  O   -0.457646
    11  O   -0.480524
    12  H    0.168240
    13  H    0.115322
    14  H    0.112456
    15  H    0.356915
    16  H    0.386288
    17  H    0.366066
 Sum of Mulliken charges =  -0.00000

 Dipole moment (field-independent basis, Debye):
    X=             -3.8013    Y=              1.8324    Z=              0.0006  Tot=              4.2199
 Quadrupole moment (field-independent basis, Debye-Ang):
   XX=            -58.8748   YY=            -53.7394   ZZ=            -65.5973
   XY=            -10.1407   XZ=             -0.0005   YZ=              0.0002

  Exact polarizability: 130.316  -0.916 111.989  -0.001  -0.001  52.063
 Approx polarizability: 200.974   7.405 184.036  -0.003  -0.004  76.387

                      1                      2                      3
                      A                      A                      A
 Frequencies --     25.9637               120.1285               169.0244
 Red. masses --     11.6460                 5.4920                 5.2029
 Frc consts  --      0.0046                 0.0467                 0.0876
 IR Inten    --      2.1626                 2.9475                 4.8282

                      4                      5                      6
                      A                      A                      A
 Frequencies --    199.7795               264.9700               324.2905
 Red. masses --      7.6827                 1.0999                 6.8450
 Frc consts  --      0.1807                 0.0455                 0.4241
 IR Inten    --      3.1598               108.7099                 0.7838

                      7                      8                      9
                      A                      A                      A
 Frequencies --    352.4609               371.2510               397.1941
 Red. masses --      1.2724                 3.6681                 7.5399
 Frc consts  --      0.0931                 0.2979                 0.7008
 IR Inten    --     85.3383                17.1408                 2.9996

                     10                     11                     12
                      A                      A                      A
 Frequencies --    404.1021               435.1101               483.8880
 Red. masses --      7.4275                 3.0708                 8.0501
 Frc consts  --      0.7146                 0.3425                 1.1106
 IR Inten    --      1.6046                 4.5961                 0.9276

                     13                     14                     15
                      A                      A                      A
 Frequencies --    546.8702               547.8942               591.0595
 Red. masses --      2.2592                 4.0078                 1.4018
 Frc consts  --      0.3981                 0.7088                 0.2885
 IR Inten    --      0.3867                36.8032               115.6325

                     16                     17                     18
                      A                      A                      A
 Frequencies --    663.5541               681.7097               733.4174
 Red. masses --      4.9069                 4.2014                 5.6038
 Frc consts  --      1.2729                 1.1504                 1.7760
 IR Inten    --     45.6379                19.7785                19.9481

                     19                     20                     21
                      A                      A                      A
 Frequencies --    791.8264               803.0547               819.1390
 Red. masses --      2.7916                 5.9054                 2.3479
 Frc consts  --      1.0312                 2.2438                 0.9282
 IR Inten    --      0.1990                56.8066                60.8082

                     22                     23                     24
                      A                      A                      A
 Frequencies --    905.3310               932.2596               957.1449
 Red. masses --      1.3858                 1.3705                 5.4954
 Frc consts  --      0.6692                 0.7018                 2.9662
 IR Inten    --      6.1171                 4.9181                13.3415

                     25                     26                     27
                      A                      A                      A
 Frequencies --   1066.5324              1153.2369              1177.3745
 Red. masses --      3.6526                 1.8159                 1.4849
 Frc consts  --      2.4479                 1.4229                 1.2127
 IR Inten    --    120.9563                67.8240               313.1744

                     28                     29                     30
                      A                      A                      A
 Frequencies --   1192.0283              1199.4771              1278.6319
 Red. masses --      1.2853                 1.2037                 2.0592
 Frc consts  --      1.0760                 1.0204                 1.9835
 IR Inten    --     17.3465               179.3475                39.7172

                     31                     32                     33
                      A                      A                      A
 Frequencies --   1306.5937              1331.0107              1357.5205
 Red. masses --      8.4433                 1.5058                 2.7321
 Frc consts  --      8.4927                 1.5717                 2.9665
 IR Inten    --      5.3865               221.0393               130.5939

                     34                     35                     36
                      A                      A                      A
 Frequencies --   1386.6239              1486.9914              1542.0977
 Red. masses --      4.6413                 3.3618                 3.0022
 Frc consts  --      5.2578                 4.3797                 4.2065
 IR Inten    --      8.5238                25.5353               171.1039

                     37                     38                     39
                      A                      A                      A
 Frequencies --   1643.0080              1676.7177              1801.5474
 Red. masses --      6.4770                 6.4454                 9.9538
 Frc consts  --     10.3016                10.6763                19.0339
 IR Inten    --     68.9049                 4.4024               395.9975

                     40                     41                     42
                      A                      A                      A
 Frequencies --   3169.2913              3185.2069              3248.3478
 Red. masses --      1.0874                 1.0951                 1.0912
 Frc consts  --      6.4350                 6.5458                 6.7836
 IR Inten    --     16.6077                10.5144                 2.9987

                     43                     44                     45
                      A                      A                      A
 Frequencies --   3774.5431              3818.7912              3836.7313
 Red. masses --      1.0647                 1.0661                 1.0664
 Frc consts  --      8.9370                 9.1602                 9.2490
 IR Inten    --     94.7079                58.2555                63.9357

 - Thermochemistry -
 -------------------
 Temperature   298.150 Kelvin.  Pressure   1.00000 Atm.
 Atom     1 has atomic number  6 and mass  12.00000

 Molecular mass:   154.02661 amu.
 Principal axes and moments of inertia in atomic units:
                           1         2         3
     Eigenvalues --  1028.166731974.110563002.27727
           X            0.99972  -0.02376   0.00001
           Y            0.02376   0.99972   0.00000
           Z           -0.00001  -0.00000   1.00000
 This molecule is an asymmetric top.
 Rotational symmetry number  1.
 Warning -- assumption of classical behavior for rotation
           may cause significant error
 Rotational temperatures (Kelvin)      0.08424     0.04387     0.02885
 Rotational constants (GHZ):           1.75530     0.91420     0.60112
 Zero-point vibrational energy     323911.2 (Joules/Mol)
                                   77.41664 (Kcal/Mol)
 Warning -- explicit consideration of  15 degrees of freedom as
           vibrations may cause significant error
 Vibrational temperatures:     37.36   172.84   243.19   287.44   381.23
          (Kelvin)            466.58   507.11   534.15   571.47   581.41
                              626.03   696.21   786.82   788.30   850.40
                              954.71   980.83  1055.22  1139.26  1155.42
                             1178.56  1302.57  1341.31  1377.12  1534.50
                             1659.25  1693.98  1715.06  1725.78  1839.66
                             1879.89  1915.03  1953.17  1995.04  2139.45
                             2218.73  2363.92  2412.42  2592.02  4559.90
                             4582.80  4673.64  5430.72  5494.38  5520.19

 Zero-point correction=                           0.123371 (Hartree/Particle)
 Thermal correction to Energy=                    0.133081
 Thermal correction to Enthalpy=                  0.134025
 Thermal correction to Gibbs Free Energy=         0.087697
 Sum of electronic and zero-point Energies=           -571.202338
 Sum of electronic and thermal Energies=              -571.192629
 Sum of electronic and thermal Enthalpies=            -571.191684
 Sum of electronic and thermal Free Energies=         -571.238013

                     E (Thermal)             CV                S
                      KCal/Mol        Cal/Mol-Kelvin    Cal/Mol-Kelvin
 Total                   83.509             36.968             97.506
 Electronic               0.000              0.000              0.000
 Translational            0.889              2.981             41.006
 Rotational               0.889              2.981             30.189
 Vibrational             81.732             31.007             26.311
 Vibration     1          0.593              1.985              6.116
 Vibration     2          0.609              1.932              3.098
 Vibration     3          0.625              1.881              2.446
 Vibration     4          0.638              1.840              2.135
 Vibration     5          0.671              1.737              1.629
 Vibration     6          0.709              1.627              1.288
 Vibration     7          0.729              1.570              1.155
 Vibration     8          0.743              1.531              1.075
 Vibration     9          0.764              1.476              0.973
 Vibration    10          0.769              1.461              0.948
 Vibration    11          0.796              1.394              0.842
 Vibration    12          0.840              1.286              0.700
 Vibration    13          0.902              1.147              0.551
 Vibration    14          0.903              1.144              0.549
 Vibration    15          0.948              1.051              0.465

 Optimization completed.
    -- Stationary point found.
 Normal termination of Gaussian 09 at Mon May 20 12:59:03 2024.
