 Gaussian 09, Revision E.01,
 Gaussian 09:  ES64L-G09RevE.01 30-Nov-2015

 -------------------------------------
 # opt freq b3lyp/6-31+g(d,p) em=gd3bj
 -------------------------------------

 ----------
 [No Title]
 ----------
 Symbolic Z-matrix:
 Charge =  1 Multiplicity = 1

 SCF Done:  E(RB3LYP) =  -571.659212928     A.U. after   15 cycles
 SCF Done:  E(RB3LYP) =  -571.659606513     A.U. after   11 cycles
 SCF Done:  E(RB3LYP) =  -571.659622626     A.U. after   10 cycles
 SCF Done:  E(RB3LYP) =  -571.659628321     A.U. after   10 cycles
 SCF Done:  E(RB3LYP) =  -571.659628677     A.U. after    8 cycles
 Optimization completed.
    -- Stationary point found.
 Normal termination of Gaussian 09 at Mon May 20 13:33:06 2024.

 ----------------------------------------------------------------------
 #N Geom=AllCheck Guess=TCheck SCRF=Check GenChk RB3LYP/6-31+G(d,p) Fre
 q
 ----------------------------------------------------------------------

 Structure from the checkpoint file:  "2+b3lypDHB21.chk"
 ----------
 [No Title]
 ----------
 Charge =  1 Multiplicity = 1

                         Standard orientation:
 ---------------------------------------------------------------------
 Center     Atomic      Atomic             Coordinates (Angstroms)
 Number     Number       Type             X           Y           Z
 ---------------------------------------------------------------------
      1          6           0        0.217559    1.275269   -0.000008
      2          6           0        0.425252   -0.138588   -0.000007
      3          6           0       -0.694950   -1.016275    0.000013
      4          6           0       -1.982067   -0.515803    0.000023
      5          6           0       -2.174452    0.883294    0.000016
      6          6           0       -1.097524    1.755661    0.000006
      7          8           0       -3.002806   -1.405953    0.000016
      8          6           0        1.722901   -0.716700   -0.000015
      9          8           0        1.810190   -2.027547    0.000080
     10          8           0        2.790177    0.035572   -0.000114
     11          8           0        1.279564    2.096297   -0.000017
     12          1           0       -0.547988   -2.088318    0.000014
     13          1           0       -3.182378    1.289610    0.000019
     14          1           0       -1.273081    2.827219    0.000005
     15          1           0       -3.866100   -0.970172    0.000128
     16          1           0        2.709695   -2.394268   -0.000018
     17          1           0        3.639742   -0.437252   -0.000034
     18          1           0        1.002797    3.025077   -0.000011
 ---------------------------------------------------------------------

 SCF Done:  E(RB3LYP) =  -571.659628677     A.U. after    1 cycles

 The electronic state is 1-A.
 Alpha  occ. eigenvalues --  -19.42490 -19.42481 -19.35934 -19.32761 -10.55895
 Alpha  occ. eigenvalues --  -10.44331 -10.41260 -10.39146 -10.37361 -10.36307
 Alpha  occ. eigenvalues --  -10.36282  -1.35366  -1.27499  -1.24404  -1.21065
 Alpha  occ. eigenvalues --   -1.03387  -0.96945  -0.91175  -0.88159  -0.83980
 Alpha  occ. eigenvalues --   -0.79987  -0.78665  -0.73480  -0.71562  -0.67950
 Alpha  occ. eigenvalues --   -0.67694  -0.66507  -0.63343  -0.60144  -0.58902
 Alpha  occ. eigenvalues --   -0.58781  -0.58094  -0.56778  -0.56530  -0.55222
 Alpha  occ. eigenvalues --   -0.52248  -0.50571  -0.47710  -0.43852  -0.37373
 Alpha virt. eigenvalues --   -0.25867  -0.18423  -0.15972  -0.12949  -0.12793
 Alpha virt. eigenvalues --   -0.12022  -0.11076  -0.09861  -0.08569  -0.07897
 Alpha virt. eigenvalues --   -0.06387  -0.05225  -0.04325  -0.03821  -0.03405

 Mulliken charges:
               1
     1  C   -0.672384
     2  C    0.288033
     3  C   -0.072078
     4  C   -0.274396
     5  C    0.229146
     6  C    0.148649
     7  O   -0.507049
     8  C    1.013113
     9  O   -0.395713
    10  O   -0.388973
    11  O   -0.490622
    12  H    0.185015
    13  H    0.159837
    14  H    0.155258
    15  H    0.379457
    16  H    0.405192
    17  H    0.421603
    18  H    0.415912
 Sum of Mulliken charges =   1.00000

 Dipole moment (field-independent basis, Debye):
    X=              3.8140    Y=              0.4018    Z=              0.0001  Tot=              3.8352
 Quadrupole moment (field-independent basis, Debye-Ang):
   XX=            -14.4361   YY=            -40.8456   ZZ=            -63.6418
   XY=            -16.8919   XZ=             -0.0011   YZ=              0.0003

  Exact polarizability: 139.131  -9.177 113.963  -0.001  -0.001  47.052
 Approx polarizability: 225.422 -18.342 200.853  -0.002  -0.001  69.550

                      1                      2                      3
                      A                      A                      A
 Frequencies --     23.3676               109.7399               157.5554
 Red. masses --     12.4869                 5.0179                 4.9101
 Frc consts  --      0.0040                 0.0356                 0.0718
 IR Inten    --      0.0491                13.5696                 7.7991

                      4                      5                      6
                      A                      A                      A
 Frequencies --    212.7306               284.8662               306.3730
 Red. masses --      6.2791                 1.0652                 1.1481
 Frc consts  --      0.1674                 0.0509                 0.0635
 IR Inten    --      9.6671                 8.2897               132.8325

                      7                      8                      9
                      A                      A                      A
 Frequencies --    340.9746               357.9219               393.5687
 Red. masses --      6.2372                 4.1726                 7.4659
 Frc consts  --      0.4273                 0.3149                 0.6814
 IR Inten    --      0.2080                 0.6170                 0.5730

                     10                     11                     12
                      A                      A                      A
 Frequencies --    411.0297               428.7796               444.0098
 Red. masses --      5.9518                 2.1104                 1.1840
 Frc consts  --      0.5924                 0.2286                 0.1375
 IR Inten    --      0.7493                80.5163                36.4563

                     13                     14                     15
                      A                      A                      A
 Frequencies --    478.2239               500.3545               548.0884
 Red. masses --      7.8835                 1.3798                 2.6997
 Frc consts  --      1.0623                 0.2035                 0.4778
 IR Inten    --      2.2860               197.2661                80.1805

                     16                     17                     18
                      A                      A                      A
 Frequencies --    563.3236               654.4057               680.1118
 Red. masses --      4.0225                 4.2169                 5.1436
 Frc consts  --      0.7521                 1.0640                 1.4018
 IR Inten    --     20.2132                47.3883                 1.5749

                     19                     20                     21
                      A                      A                      A
 Frequencies --    733.3655               777.6082               812.1951
 Red. masses --      5.4209                 5.1693                 5.8305
 Frc consts  --      1.7177                 1.8416                 2.2661
 IR Inten    --     13.9346                 0.0293                44.6093

                     22                     23                     24
                      A                      A                      A
 Frequencies --    842.9649               891.7698               967.2063
 Red. masses --      1.6619                 1.5129                 4.6227
 Frc consts  --      0.6958                 0.7089                 2.5479
 IR Inten    --     46.4703                13.8673                25.2365

                     25                     26                     27
                      A                      A                      A
 Frequencies --    970.4199              1095.5320              1116.8151
 Red. masses --      1.3371                 3.0614                 1.1213
 Frc consts  --      0.7419                 2.1648                 0.8240
 IR Inten    --      0.5871               167.6344               176.4701

                     28                     29                     30
                      A                      A                      A
 Frequencies --   1152.7166              1186.3390              1195.7613
 Red. masses --      1.7631                 1.4365                 1.2333
 Frc consts  --      1.3803                 1.1912                 1.0390
 IR Inten    --    156.6420               268.8307                85.1047

                     31                     32                     33
                      A                      A                      A
 Frequencies --   1205.7845              1296.0769              1324.3017
 Red. masses --      1.2104                 1.8854                 9.5435
 Frc consts  --      1.0369                 1.8660                 9.8612
 IR Inten    --    138.8691                11.2529                89.9071

                     34                     35                     36
                      A                      A                      A
 Frequencies --   1342.2420              1420.4723              1452.7741
 Red. masses --      1.7559                 4.9449                 3.2949
 Frc consts  --      1.8638                 5.8786                 4.0972
 IR Inten    --    232.3032                70.9426                12.6744

                     37                     38                     39
                      A                      A                      A
 Frequencies --   1504.5454              1553.2074              1607.2459
 Red. masses --      4.6642                 3.7706                 4.4765
 Frc consts  --      6.2207                 5.3594                 6.8132
 IR Inten    --     75.0834               482.9824               547.6123

                     40                     41                     42
                      A                      A                      A
 Frequencies --   1617.7281              1685.9755              3191.8506
 Red. masses --      5.7734                 6.1176                 1.0894
 Frc consts  --      8.9021                10.2455                 6.5390
 IR Inten    --    229.1425                46.2753                 2.9463

                     43                     44                     45
                      A                      A                      A
 Frequencies --   3204.6887              3249.8674              3753.5819
 Red. masses --      1.0958                 1.0920                 1.0681
 Frc consts  --      6.6306                 6.7952                 8.8665
 IR Inten    --      0.2900                 7.6136               121.1265

                     46                     47                     48
                      A                      A                      A
 Frequencies --   3771.7538              3794.3480              3824.4601
 Red. masses --      1.0668                 1.0667                 1.0670
 Frc consts  --      8.9415                 9.0479                 9.1953
 IR Inten    --    467.6655               158.4610               132.1317

 - Thermochemistry -
 -------------------
 Temperature   298.150 Kelvin.  Pressure   1.00000 Atm.
 Atom     1 has atomic number  6 and mass  12.00000

 Molecular mass:   155.03443 amu.
 Principal axes and moments of inertia in atomic units:
                           1         2         3
     Eigenvalues --  1019.769321996.280053016.04937
           X            0.99959  -0.02849   0.00001
           Y            0.02849   0.99959   0.00001
           Z           -0.00001  -0.00001   1.00000
 This molecule is an asymmetric top.
 Rotational symmetry number  1.
 Warning -- assumption of classical behavior for rotation
           may cause significant error
 Rotational temperatures (Kelvin)      0.08493     0.04339     0.02872
 Rotational constants (GHZ):           1.76975     0.90405     0.59838
 Zero-point vibrational energy     355524.3 (Joules/Mol)
                                   84.97235 (Kcal/Mol)
 Warning -- explicit consideration of  16 degrees of freedom as
           vibrations may cause significant error
 Vibrational temperatures:     33.62   157.89   226.69   306.07   409.86
          (Kelvin)            440.80   490.59   514.97   566.26   591.38
                              616.92   638.83   688.06   719.90   788.58
                              810.50   941.54   978.53  1055.15  1118.80
                             1168.57  1212.84  1283.06  1391.59  1396.22
                             1576.22  1606.85  1658.50  1706.88  1720.43
                             1734.85  1864.76  1905.37  1931.18  2043.74
                             2090.22  2164.70  2234.72  2312.47  2327.55
                             2425.74  4592.36  4610.83  4675.83  5400.56
                             5426.71  5459.21  5502.54

 Zero-point correction=                           0.135412 (Hartree/Particle)
 Thermal correction to Energy=                    0.145502
 Thermal correction to Enthalpy=                  0.146446
 Thermal correction to Gibbs Free Energy=         0.099392
 Sum of electronic and zero-point Energies=           -571.524217
 Sum of electronic and thermal Energies=              -571.514126
 Sum of electronic and thermal Enthalpies=            -571.513182
 Sum of electronic and thermal Free Energies=         -571.560236

                     E (Thermal)             CV                S
                      KCal/Mol        Cal/Mol-Kelvin    Cal/Mol-Kelvin
 Total                   91.304             38.713             99.033
 Electronic               0.000              0.000              0.000
 Translational            0.889              2.981             41.025
 Rotational               0.889              2.981             30.197
 Vibrational             89.527             32.752             27.811
 Vibration     1          0.593              1.985              6.325
 Vibration     2          0.606              1.941              3.274
 Vibration     3          0.621              1.894              2.579
 Vibration     4          0.644              1.822              2.020
 Vibration     5          0.683              1.702              1.504
 Vibration     6          0.697              1.662              1.382
 Vibration     7          0.720              1.594              1.208
 Vibration     8          0.733              1.559              1.131
 Vibration     9          0.761              1.484              0.987
 Vibration    10          0.775              1.446              0.923
 Vibration    11          0.790              1.408              0.863
 Vibration    12          0.804              1.374              0.814
 Vibration    13          0.835              1.298              0.715
 Vibration    14          0.856              1.249              0.657
 Vibration    15          0.903              1.144              0.548
 Vibration    16          0.919              1.111              0.517

 Optimization completed.
    -- Stationary point found.
 Normal termination of Gaussian 09 at Mon May 20 13:34:33 2024.
