 Gaussian 09, Revision E.01,
 Gaussian 09:  ES64L-G09RevE.01 30-Nov-2015

 -------------------------------------------------------
 # opt freq b3pw91/6-31+g(d,p) EmpiricalDispersion=GD3BJ
 -------------------------------------------------------

 ----------
 [No Title]
 ----------
 Symbolic Z-matrix:
 Charge =  0 Multiplicity = 1

 SCF Done:  E(RB3PW91) =  -571.102982577     A.U. after   14 cycles
 SCF Done:  E(RB3PW91) =  -571.103234677     A.U. after   11 cycles
 SCF Done:  E(RB3PW91) =  -571.103259669     A.U. after   10 cycles
 SCF Done:  E(RB3PW91) =  -571.103261404     A.U. after   10 cycles
 SCF Done:  E(RB3PW91) =  -571.103258990     A.U. after   10 cycles
 SCF Done:  E(RB3PW91) =  -571.103261935     A.U. after   10 cycles
 Optimization completed.
    -- Stationary point found.
 Normal termination of Gaussian 09 at Tue Dec 17 21:50:36 2024.

 ----------------------------------------------------------------------
 #N Geom=AllCheck Guess=TCheck SCRF=Check GenChk RB3PW91/6-31+G(d,p) Fr
 eq
 ----------------------------------------------------------------------

 Structure from the checkpoint file:  "B3PWD3BJDHB.chk"
 ----------
 [No Title]
 ----------
 Charge =  0 Multiplicity = 1

                         Standard orientation:
 ---------------------------------------------------------------------
 Center     Atomic      Atomic             Coordinates (Angstroms)
 Number     Number       Type             X           Y           Z
 ---------------------------------------------------------------------
      1          6           0        0.235663    1.272168   -0.000003
      2          6           0        0.466978   -0.119670   -0.000023
      3          6           0       -0.627160   -0.995414   -0.000008
      4          6           0       -1.932581   -0.521404    0.000015
      5          6           0       -2.158597    0.855926    0.000029
      6          6           0       -1.082848    1.736177    0.000025
      7          8           0       -2.941750   -1.443089    0.000013
      8          6           0        1.841746   -0.672857   -0.000068
      9          8           0        1.847276   -2.033009    0.000122
     10          8           0        2.875494   -0.040215   -0.000145
     11          8           0        1.282075    2.132042   -0.000002
     12          1           0       -0.454205   -2.064235   -0.000018
     13          1           0       -3.172833    1.248924    0.000045
     14          1           0       -1.269787    2.807660    0.000041
     15          1           0       -3.794516   -0.994596    0.000094
     16          1           0        2.781958   -2.288978    0.000108
     17          1           0        0.945413    3.035831    0.000029
 ---------------------------------------------------------------------

 SCF Done:  E(RB3PW91) =  -571.103261935     A.U. after    1 cycles

 The electronic state is 1-A.
 Alpha  occ. eigenvalues --  -19.19210 -19.18915 -19.18844 -19.13277 -10.31269
 Alpha  occ. eigenvalues --  -10.26194 -10.25308 -10.20909 -10.20824 -10.20374
 Alpha  occ. eigenvalues --  -10.19634  -1.11612  -1.08712  -1.08294  -1.02145
 Alpha  occ. eigenvalues --   -0.87866  -0.79245  -0.76043  -0.68317  -0.65171
 Alpha  occ. eigenvalues --   -0.61928  -0.56859  -0.56074  -0.51338  -0.49649
 Alpha  occ. eigenvalues --   -0.48423  -0.46162  -0.45772  -0.43884  -0.43073
 Alpha  occ. eigenvalues --   -0.42424  -0.41036  -0.40061  -0.38077  -0.36838
 Alpha  occ. eigenvalues --   -0.32983  -0.32566  -0.28116  -0.27789  -0.22693
 Alpha virt. eigenvalues --   -0.06195  -0.00868  -0.00271   0.00338   0.01944
 Alpha virt. eigenvalues --    0.02865   0.04343   0.05458   0.06077   0.06458
 Alpha virt. eigenvalues --    0.07280   0.08914   0.09044   0.09948   0.10391

 Mulliken charges:
               1
     1  C   -1.155525
     2  C    0.688861
     3  C   -0.018323
     4  C   -0.476976
     5  C    0.234095
     6  C    0.227221
     7  O   -0.513024
     8  C    0.792219
     9  O   -0.466401
    10  O   -0.443855
    11  O   -0.455473
    12  H    0.190960
    13  H    0.140497
    14  H    0.136978
    15  H    0.360803
    16  H    0.389189
    17  H    0.368753
 Sum of Mulliken charges =  -0.00000

 Dipole moment (field-independent basis, Debye):
    X=             -3.7609    Y=              1.7953    Z=              0.0003  Tot=              4.1675
 Quadrupole moment (field-independent basis, Debye-Ang):
   XX=            -57.7181   YY=            -52.6533   ZZ=            -65.1849
   XY=            -10.0580   XZ=              0.0001   YZ=              0.0004

  Exact polarizability: 128.526  -0.634 110.337  -0.002  -0.000  50.735
 Approx polarizability: 198.647   8.013 181.543  -0.003  -0.001  73.242

                      1                      2                      3
                      A                      A                      A
 Frequencies --     24.3398               118.8730               168.3750
 Red. masses --     11.6724                 5.4551                 5.1641
 Frc consts  --      0.0041                 0.0454                 0.0863
 IR Inten    --      2.1968                 3.0201                 5.5791

                      4                      5                      6
                      A                      A                      A
 Frequencies --    198.4889               273.8877               324.3801
 Red. masses --      7.6936                 1.0993                 6.8203
 Frc consts  --      0.1786                 0.0486                 0.4228
 IR Inten    --      3.1997               108.1697                 0.8086

                      7                      8                      9
                      A                      A                      A
 Frequencies --    355.5186               374.5075               397.4122
 Red. masses --      1.3489                 3.1554                 7.2473
 Frc consts  --      0.1004                 0.2608                 0.6744
 IR Inten    --     80.4980                21.8863                 3.2071

                     10                     11                     12
                      A                      A                      A
 Frequencies --    403.5700               432.6613               483.9467
 Red. masses --      7.6362                 3.0852                 7.9938
 Frc consts  --      0.7328                 0.3403                 1.1031
 IR Inten    --      1.5094                 4.0197                 1.0508

                     13                     14                     15
                      A                      A                      A
 Frequencies --    546.7843               547.1502               593.7012
 Red. masses --      2.2640                 4.0096                 1.3963
 Frc consts  --      0.3988                 0.7072                 0.2900
 IR Inten    --      0.8106                37.7536               115.8706

                     16                     17                     18
                      A                      A                      A
 Frequencies --    664.2388               681.5296               735.7698
 Red. masses --      4.8874                 4.1634                 5.4314
 Frc consts  --      1.2705                 1.1394                 1.7324
 IR Inten    --     46.7717                19.6174                21.4379

                     19                     20                     21
                      A                      A                      A
 Frequencies --    792.8099               808.1784               817.9690
 Red. masses --      2.5936                 5.8096                 2.5378
 Frc consts  --      0.9605                 2.2357                 1.0004
 IR Inten    --      0.0005                50.9665                63.8929

                     22                     23                     24
                      A                      A                      A
 Frequencies --    901.4574               930.0847               964.1420
 Red. masses --      1.3888                 1.3689                 5.1228
 Frc consts  --      0.6650                 0.6977                 2.8057
 IR Inten    --      7.3246                 4.8292                12.4776

                     25                     26                     27
                      A                      A                      A
 Frequencies --   1074.7647              1158.5467              1180.1951
 Red. masses --      3.4028                 1.7022                 1.4872
 Frc consts  --      2.3159                 1.3461                 1.2205
 IR Inten    --     95.0524                45.7212               327.9831

                     28                     29                     30
                      A                      A                      A
 Frequencies --   1193.6461              1200.3437              1285.1669
 Red. masses --      1.2375                 1.2326                 1.9235
 Frc consts  --      1.0388                 1.0463                 1.8718
 IR Inten    --     33.1891               153.5490                20.9213

                     31                     32                     33
                      A                      A                      A
 Frequencies --   1329.0898              1330.6338              1370.0316
 Red. masses --      8.5289                 1.5064                 2.9993
 Frc consts  --      8.8767                 1.5715                 3.3168
 IR Inten    --      3.9624               243.0243               157.5456

                     34                     35                     36
                      A                      A                      A
 Frequencies --   1406.4944              1495.1201              1551.8720
 Red. masses --      5.4127                 3.5391                 3.3079
 Frc consts  --      6.3087                 4.6612                 4.6937
 IR Inten    --      6.0512                27.7134               205.0542

                     37                     38                     39
                      A                      A                      A
 Frequencies --   1656.6347              1692.1316              1822.6426
 Red. masses --      6.7176                 6.7753                10.1567
 Frc consts  --     10.8621                11.4301                19.8794
 IR Inten    --     65.3812                 5.1277               393.5388

                     40                     41                     42
                      A                      A                      A
 Frequencies --   3179.7643              3195.9222              3256.0704
 Red. masses --      1.0874                 1.0955                 1.0914
 Frc consts  --      6.4780                 6.5928                 6.8173
 IR Inten    --     16.0663                 9.5129                 3.2793

                     43                     44                     45
                      A                      A                      A
 Frequencies --   3804.8831              3853.0441              3871.9108
 Red. masses --      1.0645                 1.0661                 1.0664
 Frc consts  --      9.0800                 9.3248                 9.4190
 IR Inten    --     97.9964                62.1609                68.1866

 - Thermochemistry -
 -------------------
 Temperature   298.150 Kelvin.  Pressure   1.00000 Atm.
 Atom     1 has atomic number  6 and mass  12.00000

 Molecular mass:   154.02661 amu.
 Principal axes and moments of inertia in atomic units:
                           1         2         3
     Eigenvalues --  1023.106211964.942502988.04871
           X            0.99971  -0.02391   0.00001
           Y            0.02391   0.99971   0.00001
           Z           -0.00001  -0.00001   1.00000
 This molecule is an asymmetric top.
 Rotational symmetry number  1.
 Warning -- assumption of classical behavior for rotation
           may cause significant error
 Rotational temperatures (Kelvin)      0.08466     0.04408     0.02899
 Rotational constants (GHZ):           1.76398     0.91847     0.60399
 Zero-point vibrational energy     325675.5 (Joules/Mol)
                                   77.83830 (Kcal/Mol)
 Warning -- explicit consideration of  15 degrees of freedom as
           vibrations may cause significant error
 Vibrational temperatures:     35.02   171.03   242.25   285.58   394.06
          (Kelvin)            466.71   511.51   538.83   571.79   580.65
                              622.50   696.29   786.70   787.23   854.20
                              955.69   980.57  1058.61  1140.68  1162.79
                             1176.87  1296.99  1338.18  1387.18  1546.34
                             1666.89  1698.04  1717.39  1727.02  1849.07
                             1912.26  1914.48  1971.17  2023.63  2151.14
                             2232.79  2383.52  2434.60  2622.37  4574.97
                             4598.21  4684.75  5474.37  5543.66  5570.81

 Zero-point correction=                           0.124043 (Hartree/Particle)
 Thermal correction to Energy=                    0.133737
 Thermal correction to Enthalpy=                  0.134681
 Thermal correction to Gibbs Free Energy=         0.088327
 Sum of electronic and zero-point Energies=           -570.979219
 Sum of electronic and thermal Energies=              -570.969525
 Sum of electronic and thermal Enthalpies=            -570.968581
 Sum of electronic and thermal Free Energies=         -571.014935

                     E (Thermal)             CV                S
                      KCal/Mol        Cal/Mol-Kelvin    Cal/Mol-Kelvin
 Total                   83.921             36.880             97.562
 Electronic               0.000              0.000              0.000
 Translational            0.889              2.981             41.006
 Rotational               0.889              2.981             30.175
 Vibrational             82.144             30.918             26.381
 Vibration     1          0.593              1.985              6.244
 Vibration     2          0.609              1.934              3.119
 Vibration     3          0.625              1.881              2.454
 Vibration     4          0.637              1.842              2.147
 Vibration     5          0.676              1.722              1.572
 Vibration     6          0.709              1.627              1.288
 Vibration     7          0.731              1.564              1.142
 Vibration     8          0.746              1.524              1.061
 Vibration     9          0.764              1.476              0.972
 Vibration    10          0.769              1.462              0.950
 Vibration    11          0.794              1.399              0.850
 Vibration    12          0.840              1.286              0.700
 Vibration    13          0.902              1.147              0.551
 Vibration    14          0.902              1.146              0.550
 Vibration    15          0.951              1.045              0.461

 Optimization completed.
    -- Stationary point found.
 Normal termination of Gaussian 09 at Tue Dec 17 21:52:04 2024.
