 Gaussian 09, Revision E.01,
 Gaussian 09:  ES64L-G09RevE.01 30-Nov-2015

 -------------------------------------------------------
 # opt freq b3pw91/6-31+g(d,p) EmpiricalDispersion=GD3BJ
 -------------------------------------------------------

 ----------
 [No Title]
 ----------
 Symbolic Z-matrix:
 Charge =  1 Multiplicity = 1

 SCF Done:  E(RB3PW91) =  -571.439489431     A.U. after   15 cycles
 SCF Done:  E(RB3PW91) =  -571.439498752     A.U. after   10 cycles
 SCF Done:  E(RB3PW91) =  -571.439501561     A.U. after    9 cycles
 SCF Done:  E(RB3PW91) =  -571.439501805     A.U. after    8 cycles
 Optimization completed.
    -- Stationary point found.
 Normal termination of Gaussian 09 at Tue Dec 17 21:56:40 2024.

 ----------------------------------------------------------------------
 #N Geom=AllCheck Guess=TCheck SCRF=Check GenChk RB3PW91/6-31+G(d,p) Fr
 eq
 ----------------------------------------------------------------------

 Structure from the checkpoint file:  "B3PW91D3BJDHByang.chk"
 ----------
 [No Title]
 ----------
 Charge =  1 Multiplicity = 1

                         Standard orientation:
 ---------------------------------------------------------------------
 Center     Atomic      Atomic             Coordinates (Angstroms)
 Number     Number       Type             X           Y           Z
 ---------------------------------------------------------------------
      1          6           0        0.219175    1.273927   -0.000005
      2          6           0        0.424133   -0.137323    0.000004
      3          6           0       -0.692094   -1.014002    0.000013
      4          6           0       -1.978938   -0.516298    0.000017
      5          6           0       -2.169617    0.880932    0.000010
      6          6           0       -1.094764    1.752165   -0.000001
      7          8           0       -2.994454   -1.402982    0.000032
      8          6           0        1.719892   -0.716020   -0.000007
      9          8           0        1.803973   -2.022262   -0.000089
     10          8           0        2.782644    0.034845    0.000059
     11          8           0        1.276941    2.091330   -0.000021
     12          1           0       -0.544054   -2.086593    0.000021
     13          1           0       -3.177312    1.289122    0.000016
     14          1           0       -1.272499    2.823827   -0.000008
     15          1           0       -3.854493   -0.965255    0.000023
     16          1           0        2.701465   -2.388552   -0.000015
     17          1           0        3.630138   -0.437418   -0.000029
     18          1           0        0.997203    3.017148   -0.000035
 ---------------------------------------------------------------------

 SCF Done:  E(RB3PW91) =  -571.439501805     A.U. after    1 cycles

 The electronic state is 1-A.
 Alpha  occ. eigenvalues --  -19.41487 -19.41486 -19.34905 -19.31728 -10.54405
 Alpha  occ. eigenvalues --  -10.42917 -10.39855 -10.37791 -10.35962 -10.34931
 Alpha  occ. eigenvalues --  -10.34915  -1.36075  -1.28085  -1.25035  -1.21719
 Alpha  occ. eigenvalues --   -1.03837  -0.97324  -0.91473  -0.88485  -0.84408
 Alpha  occ. eigenvalues --   -0.80233  -0.78980  -0.73802  -0.71786  -0.68211
 Alpha  occ. eigenvalues --   -0.68081  -0.66730  -0.63333  -0.60164  -0.59094
 Alpha  occ. eigenvalues --   -0.58895  -0.58204  -0.56905  -0.56738  -0.55512
 Alpha  occ. eigenvalues --   -0.52282  -0.50475  -0.47878  -0.44026  -0.37416
 Alpha virt. eigenvalues --   -0.25821  -0.17162  -0.15877  -0.12817  -0.11574
 Alpha virt. eigenvalues --   -0.10888  -0.09856  -0.08671  -0.07563  -0.06696
 Alpha virt. eigenvalues --   -0.05293  -0.04051  -0.03013  -0.02828  -0.02338

 Mulliken charges:
               1
     1  C   -0.872361
     2  C    0.387088
     3  C    0.037812
     4  C   -0.533115
     5  C    0.303212
     6  C    0.232608
     7  O   -0.482118
     8  C    0.936205
     9  O   -0.377293
    10  O   -0.378528
    11  O   -0.465762
    12  H    0.208244
    13  H    0.185253
    14  H    0.180732
    15  H    0.383445
    16  H    0.409169
    17  H    0.426143
    18  H    0.419266
 Sum of Mulliken charges =   1.00000

 Dipole moment (field-independent basis, Debye):
    X=              3.8773    Y=              0.3567    Z=             -0.0001  Tot=              3.8937
 Quadrupole moment (field-independent basis, Debye-Ang):
   XX=            -13.4955   YY=            -39.9235   ZZ=            -63.3128
   XY=            -16.7805   XZ=             -0.0004   YZ=             -0.0004

  Exact polarizability: 137.218  -8.836 112.597  -0.002   0.000  46.049
 Approx polarizability: 222.267 -17.297 198.696  -0.000   0.000  67.059

                      1                      2                      3
                      A                      A                      A
 Frequencies --     23.5139               108.2415               157.1834
 Red. masses --     12.3957                 4.9782                 4.9046
 Frc consts  --      0.0040                 0.0344                 0.0714
 IR Inten    --      0.0911                13.9651                 9.1438

                      4                      5                      6
                      A                      A                      A
 Frequencies --    211.2296               290.8044               316.1853
 Red. masses --      6.2787                 1.0674                 1.1510
 Frc consts  --      0.1651                 0.0532                 0.0678
 IR Inten    --      9.8401                 8.4042               133.3111

                      7                      8                      9
                      A                      A                      A
 Frequencies --    340.5022               358.9407               393.8277
 Red. masses --      6.2365                 4.1072                 7.4532
 Frc consts  --      0.4260                 0.3118                 0.6811
 IR Inten    --      0.2130                 0.6845                 0.6148

                     10                     11                     12
                      A                      A                      A
 Frequencies --    410.2336               427.4105               447.2740
 Red. masses --      5.9144                 2.1711                 1.1870
 Frc consts  --      0.5864                 0.2337                 0.1399
 IR Inten    --      0.8310                72.3470                42.6918

                     13                     14                     15
                      A                      A                      A
 Frequencies --    478.2012               505.6882               548.5054
 Red. masses --      7.8338                 1.3568                 2.6406
 Frc consts  --      1.0555                 0.2044                 0.4681
 IR Inten    --      2.2645               179.1003                98.7088

                     16                     17                     18
                      A                      A                      A
 Frequencies --    563.2483               655.0983               681.1212
 Red. masses --      4.0346                 4.2232                 5.0984
 Frc consts  --      0.7541                 1.0678                 1.3936
 IR Inten    --     20.6102                48.7211                 1.9505

                     19                     20                     21
                      A                      A                      A
 Frequencies --    736.3006               778.1800               816.3620
 Red. masses --      5.2896                 5.3355                 5.7472
 Frc consts  --      1.6896                 1.9036                 2.2567
 IR Inten    --     13.9453                 0.0182                39.0170

                     22                     23                     24
                      A                      A                      A
 Frequencies --    840.5651               886.6481               968.1129
 Red. masses --      1.6682                 1.5157                 1.3363
 Frc consts  --      0.6944                 0.7021                 0.7379
 IR Inten    --     48.3039                15.8914                 0.5807

                     25                     26                     27
                      A                      A                      A
 Frequencies --    973.3397              1102.3700              1116.3661
 Red. masses --      4.3710                 2.9778                 1.1188
 Frc consts  --      2.4398                 2.1321                 0.8215
 IR Inten    --     22.4058               136.5768               178.9042

                     28                     29                     30
                      A                      A                      A
 Frequencies --   1157.7235              1188.7189              1197.7078
 Red. masses --      1.7617                 1.3582                 1.2088
 Frc consts  --      1.3912                 1.1308                 1.0216
 IR Inten    --    170.6203               255.9507                37.3180

                     31                     32                     33
                      A                      A                      A
 Frequencies --   1206.9627              1299.9791              1342.8473
 Red. masses --      1.2521                 1.7718                 2.2894
 Frc consts  --      1.0746                 1.7641                 2.4323
 IR Inten    --    179.2156                 3.7521               218.7767

                     34                     35                     36
                      A                      A                      A
 Frequencies --   1349.7725              1438.3901              1464.4694
 Red. masses --      4.2234                 4.7376                 3.5485
 Frc consts  --      4.5335                 5.7752                 4.4839
 IR Inten    --    109.5605                68.7414                11.5656

                     37                     38                     39
                      A                      A                      A
 Frequencies --   1524.4048              1568.6312              1621.9866
 Red. masses --      4.8475                 4.5355                 4.7461
 Frc consts  --      6.6369                 6.5754                 7.3566
 IR Inten    --     35.8798               530.9470               541.3900

                     40                     41                     42
                      A                      A                      A
 Frequencies --   1631.4638              1701.7800              3201.7364
 Red. masses --      6.0430                 6.4344                 1.0895
 Frc consts  --      9.4766                10.9791                 6.5802
 IR Inten    --    264.5215                45.3416                 2.6906

                     43                     44                     45
                      A                      A                      A
 Frequencies --   3215.1200              3258.3243              3786.4213
 Red. masses --      1.0962                 1.0922                 1.0681
 Frc consts  --      6.6763                 6.8320                 9.0221
 IR Inten    --      0.4885                 8.1073               119.4423

                     46                     47                     48
                      A                      A                      A
 Frequencies --   3803.8594              3826.2837              3858.1374
 Red. masses --      1.0667                 1.0666                 1.0670
 Frc consts  --      9.0939                 9.2005                 9.3576
 IR Inten    --    482.7440               163.1780               137.7318

 - Thermochemistry -
 -------------------
 Temperature   298.150 Kelvin.  Pressure   1.00000 Atm.
 Atom     1 has atomic number  6 and mass  12.00000

 Molecular mass:   155.03443 amu.
 Principal axes and moments of inertia in atomic units:
                           1         2         3
     Eigenvalues --  1015.384831986.136233001.52107
           X            0.99959  -0.02870   0.00001
           Y            0.02870   0.99959  -0.00000
           Z           -0.00001   0.00000   1.00000
 This molecule is an asymmetric top.
 Rotational symmetry number  1.
 Warning -- assumption of classical behavior for rotation
           may cause significant error
 Rotational temperatures (Kelvin)      0.08530     0.04361     0.02886
 Rotational constants (GHZ):           1.77740     0.90867     0.60128
 Zero-point vibrational energy     357564.8 (Joules/Mol)
                                   85.46005 (Kcal/Mol)
 Warning -- explicit consideration of  16 degrees of freedom as
           vibrations may cause significant error
 Vibrational temperatures:     33.83   155.74   226.15   303.91   418.40
          (Kelvin)            454.92   489.91   516.43   566.63   590.23
                              614.95   643.53   688.02   727.57   789.18
                              810.39   942.54   979.98  1059.37  1119.63
                             1174.56  1209.38  1275.69  1392.90  1400.42
                             1586.06  1606.20  1665.70  1710.30  1723.23
                             1736.55  1870.38  1932.06  1942.02  2069.52
                             2107.04  2193.28  2256.91  2333.67  2347.31
                             2448.48  4606.58  4625.83  4688.00  5447.81
                             5472.90  5505.16  5550.99

 Zero-point correction=                           0.136189 (Hartree/Particle)
 Thermal correction to Energy=                    0.146253
 Thermal correction to Enthalpy=                  0.147197
 Thermal correction to Gibbs Free Energy=         0.100194
 Sum of electronic and zero-point Energies=           -571.303313
 Sum of electronic and thermal Energies=              -571.293249
 Sum of electronic and thermal Enthalpies=            -571.292305
 Sum of electronic and thermal Free Energies=         -571.339308

                     E (Thermal)             CV                S
                      KCal/Mol        Cal/Mol-Kelvin    Cal/Mol-Kelvin
 Total                   91.775             38.610             98.927
 Electronic               0.000              0.000              0.000
 Translational            0.889              2.981             41.025
 Rotational               0.889              2.981             30.183
 Vibrational             89.998             32.648             27.719
 Vibration     1          0.593              1.985              6.313
 Vibration     2          0.606              1.943              3.300
 Vibration     3          0.621              1.895              2.583
 Vibration     4          0.643              1.824              2.033
 Vibration     5          0.687              1.691              1.469
 Vibration     6          0.703              1.643              1.330
 Vibration     7          0.720              1.595              1.210
 Vibration     8          0.734              1.557              1.127
 Vibration     9          0.761              1.483              0.986
 Vibration    10          0.774              1.448              0.926
 Vibration    11          0.789              1.411              0.867
 Vibration    12          0.806              1.367              0.804
 Vibration    13          0.835              1.298              0.715
 Vibration    14          0.861              1.237              0.644
 Vibration    15          0.904              1.143              0.547
 Vibration    16          0.919              1.111              0.517

 Optimization completed.
    -- Stationary point found.
 Normal termination of Gaussian 09 at Tue Dec 17 21:58:08 2024.
