 Gaussian 09, Revision E.01,
 Gaussian 09:  ES64L-G09RevE.01 30-Nov-2015

 -----------------------------------------
 # opt freq cam-b3lyp/6-31+g(d,p) em=gd3bj
 -----------------------------------------

 ----------
 [No Title]
 ----------
 Symbolic Z-matrix:
 Charge =  1 Multiplicity = 1

 SCF Done:  E(RCAM-B3LYP) =  -571.356010941     A.U. after   15 cycles
 SCF Done:  E(RCAM-B3LYP) =  -571.356403090     A.U. after   12 cycles
 SCF Done:  E(RCAM-B3LYP) =  -571.356446177     A.U. after   11 cycles
 SCF Done:  E(RCAM-B3LYP) =  -571.356457881     A.U. after   11 cycles
 SCF Done:  E(RCAM-B3LYP) =  -571.356456624     A.U. after   11 cycles
 SCF Done:  E(RCAM-B3LYP) =  -571.356459469     A.U. after   10 cycles
 Optimization completed.
    -- Stationary point found.
 Normal termination of Gaussian 09 at Tue Feb 27 12:59:50 2024.

 ----------------------------------------------------------------------
 #N Geom=AllCheck Guess=TCheck SCRF=Check GenChk RCAM-B3LYP/6-31+G(d,p)
  Freq
 ----------------------------------------------------------------------

 Structure from the checkpoint file:  "lwcamDHBYang.chk"
 ----------
 [No Title]
 ----------
 Charge =  1 Multiplicity = 1

                         Standard orientation:
 ---------------------------------------------------------------------
 Center     Atomic      Atomic             Coordinates (Angstroms)
 Number     Number       Type             X           Y           Z
 ---------------------------------------------------------------------
      1          6           0        0.320104    1.284326   -0.000043
      2          6           0        0.505506   -0.116861   -0.000037
      3          6           0       -0.613019   -0.948235    0.000007
      4          6           0       -1.854890   -0.362066    0.000035
      5          6           0       -2.091330    0.998211    0.000026
      6          6           0       -0.980247    1.819711   -0.000007
      7          8           0       -3.052860   -1.231988    0.000060
      8          6           0        1.868336   -0.732649   -0.000095
      9          8           0        1.791286   -2.081456    0.000247
     10          8           0        2.907337   -0.131669   -0.000204
     11          8           0        1.392394    2.069822   -0.000068
     12          1           0       -0.469995   -2.023073    0.000022
     13          1           0       -3.096338    1.404367    0.000049
     14          1           0       -1.112909    2.896643   -0.000004
     15          1           0       -3.204610   -1.755200   -0.810998
     16          1           0       -3.204588   -1.755197    0.811124
     17          1           0        2.698980   -2.427780    0.000278
     18          1           0        1.157437    3.007955   -0.000067
 ---------------------------------------------------------------------

 SCF Done:  E(RCAM-B3LYP) =  -571.356459469     A.U. after    1 cycles

 The electronic state is 1-A.
 Alpha  occ. eigenvalues --  -19.59352 -19.41292 -19.40185 -19.34426 -10.53489
 Alpha  occ. eigenvalues --  -10.52730 -10.51143 -10.46431 -10.46354 -10.44905
 Alpha  occ. eigenvalues --  -10.44222  -1.45973  -1.32378  -1.31157  -1.22968
 Alpha  occ. eigenvalues --   -1.13658  -1.03600  -1.02064  -0.94963  -0.91844
 Alpha  occ. eigenvalues --   -0.90694  -0.86249  -0.80414  -0.79105  -0.76386
 Alpha  occ. eigenvalues --   -0.70965  -0.70675  -0.69202  -0.67654  -0.67272
 Alpha  occ. eigenvalues --   -0.66306  -0.63566  -0.61985  -0.59755  -0.59539
 Alpha  occ. eigenvalues --   -0.58362  -0.51615  -0.49305  -0.47014  -0.45790
 Alpha virt. eigenvalues --   -0.18188  -0.16467  -0.13763  -0.09316  -0.08968
 Alpha virt. eigenvalues --   -0.08374  -0.07495  -0.06386  -0.05003  -0.04555
 Alpha virt. eigenvalues --   -0.03678  -0.03278  -0.01643  -0.01613  -0.00913

 Mulliken charges:
               1
     1  C   -0.856211
     2  C    0.617083
     3  C    0.031361
     4  C   -0.562120
     5  C    0.199100
     6  C    0.221005
     7  O   -0.490340
     8  C    0.877731
     9  O   -0.510519
    10  O   -0.402586
    11  O   -0.458477
    12  H    0.205223
    13  H    0.192482
    14  H    0.167305
    15  H    0.475178
    16  H    0.475179
    17  H    0.419182
    18  H    0.399424
 Sum of Mulliken charges =   1.00000

 Dipole moment (field-independent basis, Debye):
    X=            -11.5465    Y=             -3.3346    Z=              0.0004  Tot=             12.0184
 Quadrupole moment (field-independent basis, Debye-Ang):
   XX=            -28.4491   YY=            -29.7564   ZZ=            -60.0948
   XY=             10.1594   XZ=              0.0007   YZ=             -0.0005

  Exact polarizability: 117.072   2.342 103.348  -0.002  -0.002  49.083
 Approx polarizability: 139.981   9.734 128.526  -0.003  -0.003  62.835

                      1                      2                      3
                      A                      A                      A
 Frequencies --     29.5022               117.2124               164.0022
 Red. masses --     11.2146                 4.0950                 4.5209
 Frc consts  --      0.0058                 0.0331                 0.0716
 IR Inten    --      0.3223                 3.1737                 9.8641

                      4                      5                      6
                      A                      A                      A
 Frequencies --    197.7158               199.2704               318.6717
 Red. masses --      6.2680                 1.0973                 5.3561
 Frc consts  --      0.1444                 0.0257                 0.3205
 IR Inten    --      3.2185                50.0360                23.7494

                      7                      8                      9
                      A                      A                      A
 Frequencies --    335.3695               386.3769               403.6192
 Red. masses --      4.4173                 4.9085                 9.2658
 Frc consts  --      0.2927                 0.4317                 0.8894
 IR Inten    --      0.6118                11.3150                 3.1871

                     10                     11                     12
                      A                      A                      A
 Frequencies --    437.9023               459.0608               468.8302
 Red. masses --      1.6832                 1.6024                 7.7383
 Frc consts  --      0.1902                 0.1990                 1.0021
 IR Inten    --     74.3862                34.7505                 1.3906

                     13                     14                     15
                      A                      A                      A
 Frequencies --    526.5259               546.7133               584.3423
 Red. masses --      3.0749                 3.2521                 1.4419
 Frc consts  --      0.5022                 0.5727                 0.2901
 IR Inten    --     21.5918                65.3387               234.3545

                     16                     17                     18
                      A                      A                      A
 Frequencies --    601.7520               663.5378               697.2466
 Red. masses --      1.2791                 5.1736                 3.4528
 Frc consts  --      0.2729                 1.3421                 0.9890
 IR Inten    --    109.3696                50.2000                39.4457

                     19                     20                     21
                      A                      A                      A
 Frequencies --    711.6388               801.7531               804.8090
 Red. masses --      5.2677                 3.0770                 5.0676
 Frc consts  --      1.5718                 1.1654                 1.9339
 IR Inten    --     26.8935                 3.2139                18.0973

                     22                     23                     24
                      A                      A                      A
 Frequencies --    846.9896               898.1972               933.8168
 Red. masses --      1.9330                 6.6898                 1.4015
 Frc consts  --      0.8170                 3.1799                 0.7201
 IR Inten    --     57.2730                 5.0973                 5.1302

                     25                     26                     27
                      A                      A                      A
 Frequencies --    982.6132              1049.4162              1088.9696
 Red. masses --      1.3355                 1.2483                 2.9520
 Frc consts  --      0.7597                 0.8100                 2.0625
 IR Inten    --      0.9181                 9.8648                93.3426

                     28                     29                     30
                      A                      A                      A
 Frequencies --   1137.3855              1162.9611              1188.2611
 Red. masses --      2.2981                 1.7761                 1.2707
 Frc consts  --      1.7516                 1.4153                 1.0571
 IR Inten    --     66.4052                71.6343                80.0247

                     31                     32                     33
                      A                      A                      A
 Frequencies --   1206.0380              1318.7906              1353.8188
 Red. masses --      1.5978                 1.3903                 3.0585
 Frc consts  --      1.3693                 1.4246                 3.3027
 IR Inten    --    171.3090                68.2600                99.5763

                     34                     35                     36
                      A                      A                      A
 Frequencies --   1377.9066              1401.9432              1485.8347
 Red. masses --      3.6038                 4.7488                 4.7573
 Frc consts  --      4.0314                 5.4991                 6.1880
 IR Inten    --     42.9249                64.6674                80.1076

                     37                     38                     39
                      A                      A                      A
 Frequencies --   1559.5437              1649.4357              1663.1882
 Red. masses --      3.1782                 1.5104                 3.6316
 Frc consts  --      4.5544                 2.4211                 5.9187
 IR Inten    --    120.8478                54.6058                83.5124

                     40                     41                     42
                      A                      A                      A
 Frequencies --   1700.7273              1882.0250              3226.2372
 Red. masses --      4.0350                11.0971                 1.0920
 Frc consts  --      6.8765                23.1584                 6.6969
 IR Inten    --     29.3871               370.2337                 0.4762

                     43                     44                     45
                      A                      A                      A
 Frequencies --   3242.6647              3250.2112              3666.2410
 Red. masses --      1.0940                 1.0969                 1.0408
 Frc consts  --      6.7772                 6.8274                 8.2427
 IR Inten    --     13.9380                 7.4427               294.2221

                     46                     47                     48
                      A                      A                      A
 Frequencies --   3760.1776              3793.4379              3838.1820
 Red. masses --      1.0919                 1.0651                 1.0668
 Frc consts  --      9.0958                 9.0301                 9.2594
 IR Inten    --    350.3438               178.9237               146.9985

 - Thermochemistry -
 -------------------
 Temperature   298.150 Kelvin.  Pressure   1.00000 Atm.
 Atom     1 has atomic number  6 and mass  12.00000

 Molecular mass:   155.03443 amu.
 Principal axes and moments of inertia in atomic units:
                           1         2         3
     Eigenvalues --  1035.547742014.539253040.61698
           X            0.99998   0.00579   0.00002
           Y           -0.00579   0.99998   0.00004
           Z           -0.00002  -0.00004   1.00000
 This molecule is an asymmetric top.
 Rotational symmetry number  1.
 Warning -- assumption of classical behavior for rotation
           may cause significant error
 Rotational temperatures (Kelvin)      0.08364     0.04299     0.02849
 Rotational constants (GHZ):           1.74279     0.89586     0.59354
 Zero-point vibrational energy     359602.6 (Joules/Mol)
                                   85.94709 (Kcal/Mol)
 Warning -- explicit consideration of  16 degrees of freedom as
           vibrations may cause significant error
 Vibrational temperatures:     42.45   168.64   235.96   284.47   286.71
          (Kelvin)            458.50   482.52   555.91   580.72   630.04
                              660.49   674.54   757.55   786.60   840.74
                              865.79   954.68  1003.18  1023.89  1153.54
                             1157.94  1218.63  1292.30  1343.55  1413.76
                             1509.87  1566.78  1636.44  1673.24  1709.64
                             1735.22  1897.44  1947.84  1982.50  2017.08
                             2137.78  2243.83  2373.17  2392.95  2446.96
                             2707.81  4641.83  4665.47  4676.32  5274.90
                             5410.05  5457.90  5522.28

 Zero-point correction=                           0.136965 (Hartree/Particle)
 Thermal correction to Energy=                    0.146927
 Thermal correction to Enthalpy=                  0.147871
 Thermal correction to Gibbs Free Energy=         0.101147
 Sum of electronic and zero-point Energies=           -571.219494
 Sum of electronic and thermal Energies=              -571.209532
 Sum of electronic and thermal Enthalpies=            -571.208588
 Sum of electronic and thermal Free Energies=         -571.255312

                     E (Thermal)             CV                S
                      KCal/Mol        Cal/Mol-Kelvin    Cal/Mol-Kelvin
 Total                   92.198             38.171             98.339
 Electronic               0.000              0.000              0.000
 Translational            0.889              2.981             41.025
 Rotational               0.889              2.981             30.229
 Vibrational             90.421             32.209             27.085
 Vibration     1          0.593              1.984              5.863
 Vibration     2          0.608              1.935              3.146
 Vibration     3          0.623              1.887              2.503
 Vibration     4          0.637              1.843              2.154
 Vibration     5          0.637              1.841              2.140
 Vibration     6          0.705              1.638              1.317
 Vibration     7          0.716              1.605              1.234
 Vibration     8          0.755              1.499              1.014
 Vibration     9          0.769              1.462              0.949
 Vibration    10          0.798              1.388              0.833
 Vibration    11          0.817              1.341              0.769
 Vibration    12          0.826              1.319              0.741
 Vibration    13          0.881              1.191              0.595
 Vibration    14          0.902              1.147              0.551
 Vibration    15          0.941              1.065              0.477
 Vibration    16          0.960              1.028              0.447

 Optimization completed.
    -- Stationary point found.
 Normal termination of Gaussian 09 at Tue Feb 27 13:01:34 2024.
