 Gaussian 09, Revision E.01,
 Gaussian 09:  ES64L-G09RevE.01 30-Nov-2015

 -----------------------------------------
 # opt freq cam-b3lyp/6-31+g(d,p) em=gd3bj
 -----------------------------------------

 ----------
 [No Title]
 ----------
 Symbolic Z-matrix:
 Charge =  0 Multiplicity = 1

 SCF Done:  E(RCAM-B3LYP) =  -571.030908277     A.U. after   16 cycles
 SCF Done:  E(RCAM-B3LYP) =  -571.061416287     A.U. after   14 cycles
 SCF Done:  E(RCAM-B3LYP) =  -571.064072495     A.U. after   13 cycles
 SCF Done:  E(RCAM-B3LYP) =  -571.064187566     A.U. after   12 cycles
 SCF Done:  E(RCAM-B3LYP) =  -571.064203269     A.U. after   12 cycles
 SCF Done:  E(RCAM-B3LYP) =  -571.064205028     A.U. after   11 cycles
 Optimization completed.
    -- Stationary point found.
 Normal termination of Gaussian 09 at Mon Feb 26 13:43:42 2024.

 ----------------------------------------------------------------------
 #N Geom=AllCheck Guess=TCheck SCRF=Check GenChk RCAM-B3LYP/6-31+G(d,p)
  Freq
 ----------------------------------------------------------------------

 Structure from the checkpoint file:  "lwcamDHB.chk"
 ----------
 [No Title]
 ----------
 Charge =  0 Multiplicity = 1

                         Standard orientation:
 ---------------------------------------------------------------------
 Center     Atomic      Atomic             Coordinates (Angstroms)
 Number     Number       Type             X           Y           Z
 ---------------------------------------------------------------------
      1          6           0        0.231821    1.268546    0.000045
      2          6           0        0.463648   -0.117907    0.000050
      3          6           0       -0.626567   -0.993476    0.000026
      4          6           0       -1.927841   -0.519457   -0.000024
      5          6           0       -2.155527    0.853126   -0.000044
      6          6           0       -1.082767    1.732857    0.000010
      7          8           0       -2.938346   -1.442241   -0.000115
      8          6           0        1.840981   -0.670913    0.000074
      9          8           0        1.849706   -2.027878    0.000162
     10          8           0        2.871257   -0.040283   -0.000296
     11          8           0        1.278848    2.129744    0.000093
     12          1           0       -0.454754   -2.061655    0.000048
     13          1           0       -3.170023    1.242717   -0.000107
     14          1           0       -1.267855    2.803539    0.000008
     15          1           0       -3.795901   -1.002488    0.000359
     16          1           0        2.782945   -2.290483   -0.000004
     17          1           0        0.951379    3.036972    0.000120
 ---------------------------------------------------------------------

 SCF Done:  E(RCAM-B3LYP) =  -571.064205028     A.U. after    1 cycles

 The electronic state is 1-A.
 Alpha  occ. eigenvalues --  -19.27634 -19.26992 -19.26911 -19.21814 -10.40567
 Alpha  occ. eigenvalues --  -10.34865 -10.33899 -10.29433 -10.29401 -10.28892
 Alpha  occ. eigenvalues --  -10.28224  -1.19672  -1.16167  -1.15708  -1.10001
 Alpha  occ. eigenvalues --   -0.95984  -0.87135  -0.83700  -0.75748  -0.72488
 Alpha  occ. eigenvalues --   -0.68927  -0.63899  -0.62799  -0.58299  -0.56457
 Alpha  occ. eigenvalues --   -0.55478  -0.53454  -0.52500  -0.50448  -0.50018
 Alpha  occ. eigenvalues --   -0.48891  -0.47750  -0.46738  -0.44454  -0.43269
 Alpha  occ. eigenvalues --   -0.39425  -0.39036  -0.34352  -0.33407  -0.27762
 Alpha virt. eigenvalues --   -0.01612   0.01644   0.02370   0.03720   0.03755
 Alpha virt. eigenvalues --    0.04865   0.07157   0.07603   0.07738   0.08999
 Alpha virt. eigenvalues --    0.09386   0.10399   0.10412   0.11909   0.12159

 Mulliken charges:
               1
     1  C   -0.851671
     2  C    0.549241
     3  C   -0.144400
     4  C   -0.158085
     5  C    0.116941
     6  C    0.078627
     7  O   -0.555350
     8  C    0.878444
     9  O   -0.498783
    10  O   -0.463329
    11  O   -0.499978
    12  H    0.177537
    13  H    0.123618
    14  H    0.120341
    15  H    0.361784
    16  H    0.393596
    17  H    0.371469
 Sum of Mulliken charges =  -0.00000

 Dipole moment (field-independent basis, Debye):
    X=             -3.7659    Y=              1.8039    Z=              0.0012  Tot=              4.1756
 Quadrupole moment (field-independent basis, Debye-Ang):
   XX=            -58.8692   YY=            -53.7146   ZZ=            -65.6605
   XY=            -10.5501   XZ=             -0.0019   YZ=             -0.0000

  Exact polarizability: 125.090  -0.272 108.544  -0.002  -0.001  51.267
 Approx polarizability: 145.642   5.883 135.528  -0.003  -0.002  64.332

                      1                      2                      3
                      A                      A                      A
 Frequencies --     23.4669               123.5586               171.9941
 Red. masses --     11.5973                 5.4651                 5.1111
 Frc consts  --      0.0038                 0.0492                 0.0891
 IR Inten    --      2.3118                 3.2234                 5.4202

                      4                      5                      6
                      A                      A                      A
 Frequencies --    201.7347               253.9248               327.6468
 Red. masses --      7.6607                 1.0994                 6.7834
 Frc consts  --      0.1837                 0.0418                 0.4291
 IR Inten    --      3.3505               112.9990                 0.7231

                      7                      8                      9
                      A                      A                      A
 Frequencies --    346.1601               378.0865               400.5172
 Red. masses --      1.1387                 5.5680                 7.6889
 Frc consts  --      0.0804                 0.4690                 0.7267
 IR Inten    --    104.6143                 3.8511                 3.4846

                     10                     11                     12
                      A                      A                      A
 Frequencies --    407.7014               442.7628               489.7463
 Red. masses --      7.1956                 3.0225                 8.0047
 Frc consts  --      0.7047                 0.3491                 1.1312
 IR Inten    --      1.7500                 5.4313                 1.1843

                     13                     14                     15
                      A                      A                      A
 Frequencies --    553.4509               555.9055               601.1127
 Red. masses --      3.9703                 2.1487                 1.4431
 Frc consts  --      0.7165                 0.3912                 0.3072
 IR Inten    --     37.2664                 0.0005               120.5888

                     16                     17                     18
                      A                      A                      A
 Frequencies --    672.0100               699.1316               743.6088
 Red. masses --      4.8406                 4.0203                 5.3964
 Frc consts  --      1.2880                 1.1578                 1.7581
 IR Inten    --     49.2372                20.1676                23.8432

                     19                     20                     21
                      A                      A                      A
 Frequencies --    809.1534               814.9871               840.0094
 Red. masses --      2.9272                 5.7932                 2.2588
 Frc consts  --      1.1292                 2.2671                 0.9391
 IR Inten    --      0.9964                54.6903                64.4942

                     22                     23                     24
                      A                      A                      A
 Frequencies --    931.4008               957.9832               973.7639
 Red. masses --      1.4310                 1.3714                 5.1757
 Frc consts  --      0.7314                 0.7415                 2.8915
 IR Inten    --      6.9318                 4.3747                12.4390

                     25                     26                     27
                      A                      A                      A
 Frequencies --   1088.6227              1168.8256              1183.9368
 Red. masses --      3.2000                 1.7218                 1.3728
 Frc consts  --      2.2344                 1.3859                 1.1337
 IR Inten    --     83.5401                47.8263               227.8569

                     28                     29                     30
                      A                      A                      A
 Frequencies --   1198.8319              1203.8932              1292.1024
 Red. masses --      1.4239                 1.1806                 1.9475
 Frc consts  --      1.2057                 1.0081                 1.9157
 IR Inten    --    155.1804               169.4115                22.7170

                     31                     32                     33
                      A                      A                      A
 Frequencies --   1331.6373              1341.9232              1364.4627
 Red. masses --     10.5904                 1.5290                 2.9304
 Frc consts  --     11.0646                 1.6223                 3.2144
 IR Inten    --      7.0142               234.4739                95.5006

                     34                     35                     36
                      A                      A                      A
 Frequencies --   1396.1651              1510.2711              1569.0997
 Red. masses --      4.2746                 3.7019                 3.2974
 Frc consts  --      4.9093                 4.9749                 4.7832
 IR Inten    --     66.7928                29.6269               208.6153

                     37                     38                     39
                      A                      A                      A
 Frequencies --   1684.0215              1716.7950              1849.0937
 Red. masses --      6.9631                 6.8363                10.3224
 Frc consts  --     11.6345                11.8716                20.7944
 IR Inten    --     59.4766                 5.7456               418.4676

                     40                     41                     42
                      A                      A                      A
 Frequencies --   3193.4959              3209.1644              3267.6840
 Red. masses --      1.0882                 1.0960                 1.0920
 Frc consts  --      6.5390                 6.6503                 6.8699
 IR Inten    --     13.9763                 6.8588                 3.8790

                     43                     44                     45
                      A                      A                      A
 Frequencies --   3814.6191              3866.8767              3882.2145
 Red. masses --      1.0647                 1.0662                 1.0665
 Frc consts  --      9.1277                 9.3931                 9.4702
 IR Inten    --    114.3119                73.3035                76.4668

 - Thermochemistry -
 -------------------
 Temperature   298.150 Kelvin.  Pressure   1.00000 Atm.
 Atom     1 has atomic number  6 and mass  12.00000

 Molecular mass:   154.02661 amu.
 Principal axes and moments of inertia in atomic units:
                           1         2         3
     Eigenvalues --  1019.685601960.735792980.42138
           X            0.99972  -0.02363  -0.00000
           Y            0.02363   0.99972  -0.00000
           Z            0.00000   0.00000   1.00000
 This molecule is an asymmetric top.
 Rotational symmetry number  1.
 Warning -- assumption of classical behavior for rotation
           may cause significant error
 Rotational temperatures (Kelvin)      0.08494     0.04417     0.02906
 Rotational constants (GHZ):           1.76990     0.92044     0.60553
 Zero-point vibrational energy     328097.1 (Joules/Mol)
                                   78.41709 (Kcal/Mol)
 Warning -- explicit consideration of  15 degrees of freedom as
           vibrations may cause significant error
 Vibrational temperatures:     33.76   177.77   247.46   290.25   365.34
          (Kelvin)            471.41   498.05   543.98   576.25   586.59
                              637.04   704.63   796.29   799.82   864.87
                              966.87  1005.89  1069.89  1164.19  1172.58
                             1208.58  1340.08  1378.32  1401.03  1566.28
                             1681.68  1703.42  1724.85  1732.13  1859.04
                             1915.93  1930.73  1963.16  2008.77  2172.94
                             2257.58  2422.93  2470.08  2660.43  4594.72
                             4617.27  4701.46  5488.38  5563.57  5585.63

 Zero-point correction=                           0.124966 (Hartree/Particle)
 Thermal correction to Energy=                    0.134595
 Thermal correction to Enthalpy=                  0.135539
 Thermal correction to Gibbs Free Energy=         0.089267
 Sum of electronic and zero-point Energies=           -570.939239
 Sum of electronic and thermal Energies=              -570.929610
 Sum of electronic and thermal Enthalpies=            -570.928666
 Sum of electronic and thermal Free Energies=         -570.974938

                     E (Thermal)             CV                S
                      KCal/Mol        Cal/Mol-Kelvin    Cal/Mol-Kelvin
 Total                   84.459             36.536             97.387
 Electronic               0.000              0.000              0.000
 Translational            0.889              2.981             41.006
 Rotational               0.889              2.981             30.167
 Vibrational             82.682             30.574             26.214
 Vibration     1          0.593              1.985              6.317
 Vibration     2          0.610              1.929              3.044
 Vibration     3          0.626              1.877              2.414
 Vibration     4          0.639              1.837              2.117
 Vibration     5          0.665              1.756              1.703
 Vibration     6          0.711              1.620              1.272
 Vibration     7          0.724              1.583              1.184
 Vibration     8          0.748              1.517              1.047
 Vibration     9          0.766              1.469              0.961
 Vibration    10          0.772              1.453              0.935
 Vibration    11          0.802              1.377              0.818
 Vibration    12          0.846              1.273              0.684
 Vibration    13          0.909              1.132              0.537
 Vibration    14          0.911              1.127              0.532
 Vibration    15          0.959              1.029              0.448

 Optimization completed.
    -- Stationary point found.
 Normal termination of Gaussian 09 at Mon Feb 26 13:45:27 2024.
