 Gaussian 09, Revision E.01,
 Gaussian 09:  ES64L-G09RevE.01 30-Nov-2015

 --------------------------------------
 # opt freq pbepbe/6-31+g(d,p) em=gd3bj
 --------------------------------------

 ----------
 [No Title]
 ----------
 Symbolic Z-matrix:
 Charge =  1 Multiplicity = 1

 SCF Done:  E(RPBE-PBE) =  -571.011638163     A.U. after   18 cycles
 SCF Done:  E(RPBE-PBE) =  -571.012552639     A.U. after   13 cycles
 SCF Done:  E(RPBE-PBE) =  -571.012576393     A.U. after   11 cycles
 SCF Done:  E(RPBE-PBE) =  -571.012577474     A.U. after   10 cycles
 Optimization completed.
    -- Stationary point found.
 Normal termination of Gaussian 09 at Wed Jun 19 15:04:12 2024.

 ----------------------------------------------------------------------
 #N Geom=AllCheck Guess=TCheck SCRF=Check GenChk RPBEPBE/6-31+G(d,p) Fr
 eq
 ----------------------------------------------------------------------

 Structure from the checkpoint file:  "pbeDHByanggd3.chk"
 ----------
 [No Title]
 ----------
 Charge =  1 Multiplicity = 1

                         Standard orientation:
 ---------------------------------------------------------------------
 Center     Atomic      Atomic             Coordinates (Angstroms)
 Number     Number       Type             X           Y           Z
 ---------------------------------------------------------------------
      1          6           0       -0.218212    1.281467    0.000005
      2          6           0       -0.427760   -0.141174    0.000004
      3          6           0        0.695013   -1.021723   -0.000010
      4          6           0        1.991475   -0.518989   -0.000015
      5          6           0        2.185910    0.887473   -0.000012
      6          6           0        1.103744    1.763198   -0.000000
      7          8           0        3.012081   -1.413983   -0.000036
      8          6           0       -1.730720   -0.720727    0.000024
      9          8           0       -1.814752   -2.041977    0.000055
     10          8           0       -2.802329    0.044818   -0.000037
     11          8           0       -1.286209    2.104802    0.000012
     12          1           0        0.545716   -2.102287   -0.000014
     13          1           0        3.201605    1.297518   -0.000022
     14          1           0        1.281161    2.843273   -0.000000
     15          1           0        3.876999   -0.961851    0.000018
     16          1           0       -2.727345   -2.398515   -0.000027
     17          1           0       -3.653755   -0.442162    0.000087
     18          1           0       -0.991404    3.037604    0.000027
 ---------------------------------------------------------------------

 SCF Done:  E(RPBE-PBE) =  -571.012577474     A.U. after    1 cycles

 The electronic state is 1-A.
 Alpha  occ. eigenvalues --  -19.04419 -19.04390 -18.98538 -18.95510 -10.25392
 Alpha  occ. eigenvalues --  -10.15024 -10.12298 -10.10411 -10.08379 -10.07588
 Alpha  occ. eigenvalues --  -10.07324  -1.25024  -1.17749  -1.15179  -1.12121
 Alpha  occ. eigenvalues --   -0.95111  -0.89126  -0.83659  -0.80998  -0.77309
 Alpha  occ. eigenvalues --   -0.73294  -0.72339  -0.67366  -0.65721  -0.61849
 Alpha  occ. eigenvalues --   -0.61484  -0.60680  -0.57730  -0.54698  -0.53685
 Alpha  occ. eigenvalues --   -0.53607  -0.52472  -0.51445  -0.50907  -0.50101
 Alpha  occ. eigenvalues --   -0.47158  -0.45598  -0.43188  -0.40643  -0.34316
 Alpha virt. eigenvalues --   -0.28016  -0.20196  -0.18899  -0.16222  -0.14618
 Alpha virt. eigenvalues --   -0.13911  -0.12911  -0.11327  -0.10558  -0.08796
 Alpha virt. eigenvalues --   -0.07903  -0.06638  -0.05806  -0.05580  -0.05257

 Mulliken charges:
               1
     1  C   -0.868846
     2  C    0.423847
     3  C   -0.119079
     4  C   -0.354828
     5  C    0.245344
     6  C    0.204905
     7  O   -0.450531
     8  C    0.907246
     9  O   -0.349093
    10  O   -0.348248
    11  O   -0.431623
    12  H    0.196248
    13  H    0.173168
    14  H    0.169669
    15  H    0.376419
    16  H    0.397824
    17  H    0.415332
    18  H    0.412245
 Sum of Mulliken charges =   1.00000

 Dipole moment (field-independent basis, Debye):
    X=             -3.6657    Y=              0.4248    Z=              0.0002  Tot=              3.6903
 Quadrupole moment (field-independent basis, Debye-Ang):
   XX=            -13.6770   YY=            -40.1354   ZZ=            -63.8594
   XY=             16.1763   XZ=             -0.0003   YZ=              0.0002

  Exact polarizability: 146.450   9.071 118.924  -0.001  -0.000  48.068
 Approx polarizability: 318.080  39.265 294.219  -0.001  -0.001  78.168

 ******    1 imaginary frequencies (negative Signs) ******

                      1                      2                      3
                      A                      A                      A
 Frequencies --    -15.6982               103.2605               150.4967
 Red. masses --     11.6867                 5.0368                 4.6654
 Frc consts  --      0.0017                 0.0316                 0.0623
 IR Inten    --      0.2109                12.7277                 9.0458

                      4                      5                      6
                      A                      A                      A
 Frequencies --    205.4873               267.9400               330.6842
 Red. masses --      6.3107                 1.0823                 6.2673
 Frc consts  --      0.1570                 0.0458                 0.4038
 IR Inten    --      8.8543                 8.7134                 0.1136

                      7                      8                      9
                      A                      A                      A
 Frequencies --    337.8857               350.1683               381.9207
 Red. masses --      2.2927                 1.5253                 7.5149
 Frc consts  --      0.1542                 0.1102                 0.6458
 IR Inten    --     61.1447                68.4916                 0.4986

                     10                     11                     12
                      A                      A                      A
 Frequencies --    397.8002               415.1050               451.4241
 Red. masses --      5.9233                 2.1844                 1.1516
 Frc consts  --      0.5523                 0.2218                 0.1383
 IR Inten    --      0.9205                52.5021                44.3966

                     13                     14                     15
                      A                      A                      A
 Frequencies --    463.0747               479.4564               528.6124
 Red. masses --      7.7989                 1.3870                 2.5891
 Frc consts  --      0.9853                 0.1879                 0.4263
 IR Inten    --      2.1420               178.6240                82.3573

                     16                     17                     18
                      A                      A                      A
 Frequencies --    544.4059               632.5601               652.2753
 Red. masses --      4.0559                 4.2233                 5.2673
 Frc consts  --      0.7082                 0.9957                 1.3204
 IR Inten    --     20.7404                43.0560                 0.5440

                     19                     20                     21
                      A                      A                      A
 Frequencies --    711.5564               744.2353               789.5695
 Red. masses --      5.5038                 4.8458                 5.8341
 Frc consts  --      1.6418                 1.5814                 2.1429
 IR Inten    --      9.8213                 0.9748                38.8146

                     22                     23                     24
                      A                      A                      A
 Frequencies --    805.8911               846.6266               922.8077
 Red. masses --      1.6859                 1.5234                 1.3311
 Frc consts  --      0.6451                 0.6434                 0.6678
 IR Inten    --     42.8169                14.8154                 0.5350

                     25                     26                     27
                      A                      A                      A
 Frequencies --    940.6009              1059.6124              1090.7091
 Red. masses --      4.5259                 3.1367                 1.1234
 Frc consts  --      2.3592                 2.0750                 0.7874
 IR Inten    --     24.2980               155.3425               165.6222

                     28                     29                     30
                      A                      A                      A
 Frequencies --   1118.9413              1157.8391              1166.6362
 Red. masses --      1.7167                 1.3301                 1.1535
 Frc consts  --      1.2664                 1.0506                 0.9250
 IR Inten    --    115.0376               216.6408                 4.2994

                     31                     32                     33
                      A                      A                      A
 Frequencies --   1174.1457              1260.8060              1298.6890
 Red. masses --      1.3300                 1.7741                 1.7980
 Frc consts  --      1.0803                 1.6616                 1.7867
 IR Inten    --    203.5945                 6.7662               230.6863

                     34                     35                     36
                      A                      A                      A
 Frequencies --   1311.7900              1411.0489              1415.7758
 Red. masses --      7.6554                 6.7476                 3.0051
 Frc consts  --      7.7615                 7.9156                 3.5489
 IR Inten    --     52.9071                71.5011                11.9361

                     37                     38                     39
                      A                      A                      A
 Frequencies --   1462.7559              1510.5307              1566.1182
 Red. masses --      5.3505                 4.1341                 5.2169
 Frc consts  --      6.7451                 5.5577                 7.5390
 IR Inten    --     54.2816               474.8803                88.8830

                     40                     41                     42
                      A                      A                      A
 Frequencies --   1578.9209              1642.2073              3121.2264
 Red. masses --      5.0440                 6.4320                 1.0886
 Frc consts  --      7.4087                10.2200                 6.2486
 IR Inten    --    512.7086                46.0861                 2.9801

                     43                     44                     45
                      A                      A                      A
 Frequencies --   3134.1389              3177.5512              3645.5519
 Red. masses --      1.0957                 1.0915                 1.0677
 Frc consts  --      6.3411                 6.4932                 8.3602
 IR Inten    --      0.5416                 7.4504               140.4963

                     46                     47                     48
                      A                      A                      A
 Frequencies --   3665.1074              3676.4250              3710.7254
 Red. masses --      1.0666                 1.0664                 1.0668
 Frc consts  --      8.4418                 8.4923                 8.6544
 IR Inten    --    375.0731               129.7385               121.4328

 - Thermochemistry -
 -------------------
 Temperature   298.150 Kelvin.  Pressure   1.00000 Atm.
 Atom     1 has atomic number  6 and mass  12.00000

 Molecular mass:   155.03443 amu.
 Principal axes and moments of inertia in atomic units:
                           1         2         3
     Eigenvalues --  1030.405122012.341503042.74662
           X            0.99958   0.02910   0.00001
           Y           -0.02910   0.99958   0.00000
           Z           -0.00001  -0.00000   1.00000
 This molecule is an asymmetric top.
 Rotational symmetry number  1.
 Warning -- assumption of classical behavior for rotation
           may cause significant error
 Rotational temperatures (Kelvin)      0.08406     0.04304     0.02847
 Rotational constants (GHZ):           1.75149     0.89684     0.59313
    1 imaginary frequencies ignored.
 Zero-point vibrational energy     345787.2 (Joules/Mol)
                                   82.64511 (Kcal/Mol)
 Warning -- explicit consideration of  15 degrees of freedom as
           vibrations may cause significant error
 Vibrational temperatures:    148.57   216.53   295.65   385.51   475.78
          (Kelvin)            486.14   503.81   549.50   572.35   597.24
                              649.50   666.26   689.83   760.55   783.28
                              910.11   938.48  1023.77  1070.79  1136.01
                             1159.50  1218.11  1327.71  1353.31  1524.54
                             1569.29  1609.90  1665.87  1678.53  1689.33
                             1814.02  1868.52  1887.37  2030.18  2036.98
                             2104.58  2173.31  2253.29  2271.71  2362.77
                             4490.74  4509.32  4571.78  5245.13  5273.27
                             5289.55  5338.90

 Zero-point correction=                           0.131703 (Hartree/Particle)
 Thermal correction to Energy=                    0.141132
 Thermal correction to Enthalpy=                  0.142076
 Thermal correction to Gibbs Free Energy=         0.097594
 Sum of electronic and zero-point Energies=           -570.880874
 Sum of electronic and thermal Energies=              -570.871446
 Sum of electronic and thermal Enthalpies=            -570.870501
 Sum of electronic and thermal Free Energies=         -570.914984

                     E (Thermal)             CV                S
                      KCal/Mol        Cal/Mol-Kelvin    Cal/Mol-Kelvin
 Total                   88.562             37.686             93.621
 Electronic               0.000              0.000              0.000
 Translational            0.889              2.981             41.025
 Rotational               0.889              2.981             30.224
 Vibrational             86.784             31.724             22.372
 Vibration     1          0.605              1.947              3.392
 Vibration     2          0.618              1.902              2.666
 Vibration     3          0.640              1.832              2.083
 Vibration     4          0.673              1.732              1.609
 Vibration     5          0.713              1.614              1.257
 Vibration     6          0.718              1.600              1.222
 Vibration     7          0.727              1.575              1.165
 Vibration     8          0.751              1.509              1.032
 Vibration     9          0.764              1.475              0.971
 Vibration    10          0.779              1.437              0.909
 Vibration    11          0.810              1.358              0.791
 Vibration    12          0.821              1.332              0.757
 Vibration    13          0.836              1.296              0.712
 Vibration    14          0.884              1.187              0.590
 Vibration    15          0.900              1.152              0.556

 Optimization completed.
    -- Stationary point found.
 Normal termination of Gaussian 09 at Wed Jun 19 15:05:25 2024.
