 Gaussian 09, Revision E.01,
 Gaussian 09:  ES64L-G09RevE.01 30-Nov-2015

 --------------------------------------
 # opt freq pbepbe/6-31+g(d,p) em=gd3bj
 --------------------------------------

 ----------
 [No Title]
 ----------
 Symbolic Z-matrix:
 Charge =  0 Multiplicity = 1

 SCF Done:  E(RPBE-PBE) =  -570.678270890     A.U. after   15 cycles
 SCF Done:  E(RPBE-PBE) =  -570.679206116     A.U. after   13 cycles
 SCF Done:  E(RPBE-PBE) =  -570.679228837     A.U. after   11 cycles
 SCF Done:  E(RPBE-PBE) =  -570.679212278     A.U. after   11 cycles
 SCF Done:  E(RPBE-PBE) =  -570.679232754     A.U. after   10 cycles
 Optimization completed.
    -- Stationary point found.
 Normal termination of Gaussian 09 at Wed Jun 19 13:57:55 2024.

 ----------------------------------------------------------------------
 #N Geom=AllCheck Guess=TCheck SCRF=Check GenChk RPBEPBE/6-31+G(d,p) Fr
 eq
 ----------------------------------------------------------------------

 Structure from the checkpoint file:  "pbeDHBgd3.chk"
 ----------
 [No Title]
 ----------
 Charge =  0 Multiplicity = 1

                         Standard orientation:
 ---------------------------------------------------------------------
 Center     Atomic      Atomic             Coordinates (Angstroms)
 Number     Number       Type             X           Y           Z
 ---------------------------------------------------------------------
      1          6           0        0.238215    1.278459    0.000042
      2          6           0        0.470885   -0.124145    0.000113
      3          6           0       -0.633076   -1.002712    0.000094
      4          6           0       -1.945779   -0.522221    0.000006
      5          6           0       -2.172241    0.865231   -0.000062
      6          6           0       -1.088220    1.748297   -0.000034
      7          8           0       -2.963520   -1.450800   -0.000037
      8          6           0        1.850464   -0.676193    0.000196
      9          8           0        1.856222   -2.053664    0.000005
     10          8           0        2.895162   -0.035940   -0.000281
     11          8           0        1.296387    2.142484    0.000069
     12          1           0       -0.460056   -2.079839    0.000152
     13          1           0       -3.193781    1.261960   -0.000141
     14          1           0       -1.273143    2.828530   -0.000081
     15          1           0       -3.819665   -0.985113    0.000097
     16          1           0        2.806313   -2.295472   -0.000251
     17          1           0        0.944834    3.052992    0.000042
 ---------------------------------------------------------------------

 SCF Done:  E(RPBE-PBE) =  -570.679232754     A.U. after    1 cycles

 The electronic state is 1-A.
 Alpha  occ. eigenvalues --  -18.82542 -18.82528 -18.82483 -18.76791 -10.02948
 Alpha  occ. eigenvalues --   -9.98489  -9.97714  -9.93537  -9.93370  -9.93012
 Alpha  occ. eigenvalues --   -9.92167  -1.01074  -0.98945  -0.98563  -0.92319
 Alpha  occ. eigenvalues --   -0.79221  -0.71261  -0.68334  -0.61239  -0.58396
 Alpha  occ. eigenvalues --   -0.55442  -0.50714  -0.50021  -0.45376  -0.43884
 Alpha  occ. eigenvalues --   -0.42198  -0.40393  -0.40306  -0.38706  -0.37519
 Alpha  occ. eigenvalues --   -0.36935  -0.35498  -0.34596  -0.32931  -0.32016
 Alpha  occ. eigenvalues --   -0.28160  -0.27601  -0.24822  -0.22714  -0.19557
 Alpha virt. eigenvalues --   -0.08785  -0.03786  -0.02898  -0.02463  -0.00681
 Alpha virt. eigenvalues --    0.00371   0.00662   0.02948   0.03801   0.04119
 Alpha virt. eigenvalues --    0.04979   0.06676   0.07028   0.07272   0.07761

 Mulliken charges:
               1
     1  C   -1.146201
     2  C    0.688731
     3  C   -0.168128
     4  C   -0.308339
     5  C    0.189690
     6  C    0.183674
     7  O   -0.483565
     8  C    0.780403
     9  O   -0.427730
    10  O   -0.414509
    11  O   -0.422758
    12  H    0.179771
    13  H    0.130082
    14  H    0.127547
    15  H    0.353056
    16  H    0.377276
    17  H    0.361001
 Sum of Mulliken charges =  -0.00000

 Dipole moment (field-independent basis, Debye):
    X=             -3.7402    Y=              1.8516    Z=              0.0004  Tot=              4.1735
 Quadrupole moment (field-independent basis, Debye-Ang):
   XX=            -58.2714   YY=            -53.4574   ZZ=            -65.8853
   XY=             -9.5049   XZ=             -0.0000   YZ=              0.0003

  Exact polarizability: 138.603  -1.366 118.502  -0.001  -0.002  53.483
 Approx polarizability: 271.651  10.651 248.598  -0.004  -0.007  86.582

                      1                      2                      3
                      A                      A                      A
 Frequencies --     30.5254               113.8059               162.4100
 Red. masses --     11.6987                 5.4672                 5.3185
 Frc consts  --      0.0064                 0.0417                 0.0827
 IR Inten    --      1.9970                 2.4761                 4.7387

                      4                      5                      6
                      A                      A                      A
 Frequencies --    192.6331               297.3869               315.0693
 Red. masses --      7.7187                 1.1030                 6.8708
 Frc consts  --      0.1688                 0.0575                 0.4019
 IR Inten    --      2.9027               101.8097                 0.9571

                      7                      8                      9
                      A                      A                      A
 Frequencies --    350.9427               381.7376               385.1718
 Red. masses --      4.0450                 1.2280                 7.1277
 Frc consts  --      0.2935                 0.1054                 0.6230
 IR Inten    --     10.8288                81.0459                 2.9768

                     10                     11                     12
                      A                      A                      A
 Frequencies --    391.4332               418.0843               468.4686
 Red. masses --      7.8237                 3.1166                 8.0185
 Frc consts  --      0.7063                 0.3210                 1.0368
 IR Inten    --      1.2504                 1.9456                 0.7372

                     13                     14                     15
                      A                      A                      A
 Frequencies --    526.1880               528.5594               581.1520
 Red. masses --      2.4547                 4.0199                 1.3708
 Frc consts  --      0.4004                 0.6617                 0.2728
 IR Inten    --      5.1173                37.1456                99.6369

                     16                     17                     18
                      A                      A                      A
 Frequencies --    639.1878               653.6876               709.9089
 Red. masses --      4.8614                 3.8905                 5.6716
 Frc consts  --      1.1702                 0.9795                 1.6841
 IR Inten    --     41.5920                25.3463                15.6301

                     19                     20                     21
                      A                      A                      A
 Frequencies --    757.7122               781.4857               782.1289
 Red. masses --      2.3484                 5.8595                 2.8209
 Frc consts  --      0.7944                 2.1084                 1.0167
 IR Inten    --      0.8470                49.2305                52.9107

                     22                     23                     24
                      A                      A                      A
 Frequencies --    858.1659               884.9400               931.0957
 Red. masses --      1.3573                 1.3761                 5.3563
 Frc consts  --      0.5889                 0.6349                 2.7359
 IR Inten    --      5.6487                 5.1118                14.2935

                     25                     26                     27
                      A                      A                      A
 Frequencies --   1028.0739              1116.5694              1140.1125
 Red. masses --      3.7616                 1.7618                 1.4411
 Frc consts  --      2.3425                 1.2942                 1.1037
 IR Inten    --    130.7708                66.6307               274.9738

                     28                     29                     30
                      A                      A                      A
 Frequencies --   1160.9041              1167.3530              1242.4978
 Red. masses --      1.1858                 1.2696                 1.9575
 Frc consts  --      0.9416                 1.0193                 1.7805
 IR Inten    --     34.0932               128.1540                28.9473

                     31                     32                     33
                      A                      A                      A
 Frequencies --   1282.1498              1286.9464              1320.7946
 Red. masses --      5.0645                 1.5852                 3.0111
 Frc consts  --      4.9053                 1.5469                 3.0949
 IR Inten    --     31.1905               195.7149               130.0295

                     34                     35                     36
                      A                      A                      A
 Frequencies --   1387.7894              1446.7919              1496.0922
 Red. masses --      6.3738                 3.4224                 3.2301
 Frc consts  --      7.2326                 4.2208                 4.2598
 IR Inten    --      7.5104                27.8102               177.9473

                     37                     38                     39
                      A                      A                      A
 Frequencies --   1595.4167              1630.6612              1740.4414
 Red. masses --      6.5926                 6.7888                 9.7708
 Frc consts  --      9.8868                10.6359                17.4380
 IR Inten    --     68.0040                 4.4205               343.3758

                     40                     41                     42
                      A                      A                      A
 Frequencies --   3098.7424              3114.7754              3173.6469
 Red. masses --      1.0866                 1.0949                 1.0907
 Frc consts  --      6.1474                 6.2587                 6.4723
 IR Inten    --     17.5364                10.1369                 3.1126

                     43                     44                     45
                      A                      A                      A
 Frequencies --   3651.4874              3694.2991              3720.5233
 Red. masses --      1.0642                 1.0658                 1.0661
 Frc consts  --      8.3601                 8.5700                 8.6950
 IR Inten    --     72.0365                43.4537                52.6647

 - Thermochemistry -
 -------------------
 Temperature   298.150 Kelvin.  Pressure   1.00000 Atm.
 Atom     1 has atomic number  6 and mass  12.00000

 Molecular mass:   154.02661 amu.
 Principal axes and moments of inertia in atomic units:
                           1         2         3
     Eigenvalues --  1036.984811991.619433028.60422
           X            0.99971  -0.02417   0.00001
           Y            0.02417   0.99971   0.00000
           Z           -0.00001  -0.00000   1.00000
 This molecule is an asymmetric top.
 Rotational symmetry number  1.
 Warning -- assumption of classical behavior for rotation
           may cause significant error
 Rotational temperatures (Kelvin)      0.08352     0.04349     0.02860
 Rotational constants (GHZ):           1.74037     0.90617     0.59590
 Zero-point vibrational energy     314844.9 (Joules/Mol)
                                   75.24973 (Kcal/Mol)
 Warning -- explicit consideration of  15 degrees of freedom as
           vibrations may cause significant error
 Vibrational temperatures:     43.92   163.74   233.67   277.16   427.87
          (Kelvin)            453.31   504.93   549.23   554.18   563.18
                              601.53   674.02   757.07   760.48   836.15
                              919.65   940.51  1021.40  1090.18  1124.38
                             1125.31  1234.71  1273.23  1339.64  1479.17
                             1606.49  1640.37  1670.28  1679.56  1787.68
                             1844.73  1851.63  1900.33  1996.72  2081.61
                             2152.54  2295.45  2346.15  2504.10  4458.39
                             4481.46  4566.16  5253.67  5315.27  5353.00

 Zero-point correction=                           0.119918 (Hartree/Particle)
 Thermal correction to Energy=                    0.129805
 Thermal correction to Enthalpy=                  0.130749
 Thermal correction to Gibbs Free Energy=         0.084246
 Sum of electronic and zero-point Energies=           -570.559315
 Sum of electronic and thermal Energies=              -570.549427
 Sum of electronic and thermal Enthalpies=            -570.548483
 Sum of electronic and thermal Free Energies=         -570.594986

                     E (Thermal)             CV                S
                      KCal/Mol        Cal/Mol-Kelvin    Cal/Mol-Kelvin
 Total                   81.454             37.883             97.874
 Electronic               0.000              0.000              0.000
 Translational            0.889              2.981             41.006
 Rotational               0.889              2.981             30.215
 Vibrational             79.677             31.921             26.653
 Vibration     1          0.594              1.984              5.795
 Vibration     2          0.607              1.938              3.203
 Vibration     3          0.623              1.889              2.522
 Vibration     4          0.635              1.850              2.202
 Vibration     5          0.691              1.679              1.432
 Vibration     6          0.702              1.645              1.336
 Vibration     7          0.728              1.573              1.162
 Vibration     8          0.751              1.509              1.032
 Vibration     9          0.754              1.502              1.019
 Vibration    10          0.759              1.488              0.995
 Vibration    11          0.781              1.431              0.899
 Vibration    12          0.826              1.320              0.742
 Vibration    13          0.881              1.192              0.596
 Vibration    14          0.884              1.187              0.590
 Vibration    15          0.938              1.072              0.483

 Optimization completed.
    -- Stationary point found.
 Normal termination of Gaussian 09 at Wed Jun 19 13:59:10 2024.
