 Gaussian 09, Revision E.01,
 Gaussian 09:  ES64L-G09RevE.01 30-Nov-2015

 ---------------------------
 # opt freq apfd/6-31+g(d,p)
 ---------------------------

 ----------
 [No Title]
 ----------
 Symbolic Z-matrix:
 Charge =  0 Multiplicity = 1

 SCF Done:  E(RAPFD) =  -687.457098341     A.U. after   16 cycles
 SCF Done:  E(RAPFD) =  -687.457348865     A.U. after   12 cycles
 SCF Done:  E(RAPFD) =  -687.457368798     A.U. after   10 cycles
 SCF Done:  E(RAPFD) =  -687.457370637     A.U. after   10 cycles
 SCF Done:  E(RAPFD) =  -687.457369600     A.U. after   10 cycles
 SCF Done:  E(RAPFD) =  -687.457371238     A.U. after    9 cycles
 Optimization completed.
    -- Stationary point found.
 Normal termination of Gaussian 09 at Tue May 28 17:35:47 2024.

 ----------------------------------------------------------------------
 #N Geom=AllCheck Guess=TCheck SCRF=Check GenChk RAPFD/6-31+G(d,p) Freq
 ----------------------------------------------------------------------

 Structure from the checkpoint file:  "APFDFA.chk"
 ----------
 [No Title]
 ----------
 Charge =  0 Multiplicity = 1

                         Standard orientation:
 ---------------------------------------------------------------------
 Center     Atomic      Atomic             Coordinates (Angstroms)
 Number     Number       Type             X           Y           Z
 ---------------------------------------------------------------------
      1          6           0        1.455890   -2.010831   -0.000048
      2          6           0        2.488880   -1.078447   -0.000050
      3          6           0        2.185504    0.297059   -0.000035
      4          6           0        0.862908    0.716178   -0.000019
      5          6           0       -0.187688   -0.223447   -0.000017
      6          6           0        0.132180   -1.588849   -0.000031
      7          8           0        3.772086   -1.497018   -0.000065
      8          6           0       -1.557311    0.274080   -0.000005
      9          6           0       -2.692230   -0.450679   -0.000016
     10          8           0        3.290831    1.097139   -0.000052
     11          6           0        3.102384    2.499328    0.000228
     12          6           0       -4.072047    0.079067    0.000026
     13          8           0       -5.033552   -0.656163    0.000326
     14          8           0       -4.260743    1.425127   -0.000257
     15          1           0        1.710895   -3.066166   -0.000054
     16          1           0        0.627115    1.776233   -0.000012
     17          1           0       -0.656618   -2.334112   -0.000023
     18          1           0        4.345714   -0.717455   -0.000043
     19          1           0       -1.621200    1.365449    0.000042
     20          1           0       -2.670065   -1.535902    0.000002
     21          1           0        4.100035    2.938334    0.000322
     22          1           0        2.561119    2.823737   -0.896756
     23          1           0        2.561100    2.823372    0.897332
     24          1           0       -3.417890    1.893079   -0.000623
 ---------------------------------------------------------------------

 SCF Done:  E(RAPFD) =  -687.457371238     A.U. after    1 cycles

 The electronic state is 1-A.
 Alpha  occ. eigenvalues --  -19.26557 -19.24888 -19.24444 -19.17909 -10.34588
 Alpha  occ. eigenvalues --  -10.30101 -10.30018 -10.29235 -10.26271 -10.25093
 Alpha  occ. eigenvalues --  -10.24764 -10.24009 -10.23956 -10.23648  -1.13394
 Alpha  occ. eigenvalues --   -1.12420  -1.10204  -1.03908  -0.90387  -0.84166
 Alpha  occ. eigenvalues --   -0.79989  -0.78346  -0.74199  -0.68902  -0.64996
 Alpha  occ. eigenvalues --   -0.63790  -0.61393  -0.59612  -0.56593  -0.54161
 Alpha  occ. eigenvalues --   -0.52688  -0.51344  -0.49453  -0.48004  -0.46375
 Alpha  occ. eigenvalues --   -0.45845  -0.45736  -0.44900  -0.44012  -0.41798
 Alpha  occ. eigenvalues --   -0.41150  -0.39214  -0.39118  -0.38298  -0.37356
 Alpha  occ. eigenvalues --   -0.37248  -0.33236  -0.31133  -0.28626  -0.27376
 Alpha  occ. eigenvalues --   -0.23451
 Alpha virt. eigenvalues --   -0.07829  -0.02381  -0.01235  -0.00105   0.00973
 Alpha virt. eigenvalues --    0.00977   0.01955   0.03784   0.04057   0.04379
 Alpha virt. eigenvalues --    0.05697   0.05893   0.06295   0.06975   0.07703

 Mulliken charges:
               1
     1  C    0.213191
     2  C   -0.352859
     3  C    0.074279
     4  C   -0.384372
     5  C    0.321302
     6  C   -0.328211
     7  O   -0.500288
     8  C   -0.137704
     9  C    0.219337
    10  O   -0.408556
    11  C   -0.181382
    12  C    0.325553
    13  O   -0.437341
    14  O   -0.413267
    15  H    0.176259
    16  H    0.147887
    17  H    0.156089
    18  H    0.395692
    19  H    0.103991
    20  H    0.167436
    21  H    0.174487
    22  H    0.167351
    23  H    0.167354
    24  H    0.333773
 Sum of Mulliken charges =  -0.00000

 Dipole moment (field-independent basis, Debye):
    X=              6.8786    Y=              3.7661    Z=             -0.0006  Tot=              7.8421
 Quadrupole moment (field-independent basis, Debye-Ang):
   XX=           -114.3061   YY=            -70.3156   ZZ=            -84.7116
   XY=              5.6099   XZ=              0.0056   YZ=              0.0001

  Exact polarizability: 236.734   4.100 138.270  -0.002  -0.001  72.634
 Approx polarizability: 347.311   9.952 213.407  -0.007  -0.004 104.972

 ******    1 imaginary frequencies (negative Signs) ******

                      1                      2                      3
                      A                      A                      A
 Frequencies --    -79.4755                13.4538                69.3099
 Red. masses --      2.2986                 4.5139                 5.0883
 Frc consts  --      0.0086                 0.0005                 0.0144
 IR Inten    --     19.2453                 1.4028                 5.8173

                      4                      5                      6
                      A                      A                      A
 Frequencies --     70.6724                76.9924               165.0075
 Red. masses --      6.0664                 3.5849                 4.5513
 Frc consts  --      0.0179                 0.0125                 0.0730
 IR Inten    --      3.6268                 1.4783                 0.6875

                      7                      8                      9
                      A                      A                      A
 Frequencies --    180.1438               220.2220               227.9032
 Red. masses --      4.0095                 1.6704                 6.9056
 Frc consts  --      0.0767                 0.0477                 0.2113
 IR Inten    --      0.5354                 0.0012                 8.7163

                     10                     11                     12
                      A                      A                      A
 Frequencies --    262.7984               286.1057               354.5908
 Red. masses --      5.0815                 1.8233                 4.7551
 Frc consts  --      0.2068                 0.0879                 0.3523
 IR Inten    --     11.4606                 0.1067                 4.2614

                     13                     14                     15
                      A                      A                      A
 Frequencies --    355.6967               393.0958               457.0452
 Red. masses --      3.1174                 1.4460                 2.8913
 Frc consts  --      0.2324                 0.1316                 0.3558
 IR Inten    --     10.8991                70.9818                12.6159

                     16                     17                     18
                      A                      A                      A
 Frequencies --    485.2834               485.6260               514.3144
 Red. masses --      5.5560                 1.1156                 6.1644
 Frc consts  --      0.7709                 0.1550                 0.9607
 IR Inten    --      1.6166               101.8672                 0.8735

                     19                     20                     21
                      A                      A                      A
 Frequencies --    567.7709               582.5619               585.1980
 Red. masses --      4.0655                 6.9283                 3.7649
 Frc consts  --      0.7722                 1.3854                 0.7596
 IR Inten    --     14.2822                25.1964                 9.4545

                     22                     23                     24
                      A                      A                      A
 Frequencies --    655.9858               705.7501               729.0257
 Red. masses --      5.5769                 4.8290                 4.5215
 Frc consts  --      1.4139                 1.4171                 1.4159
 IR Inten    --      2.9838                 0.0203                 0.0746

                     25                     26                     27
                      A                      A                      A
 Frequencies --    780.9251               805.4252               832.7681
 Red. masses --      5.7836                 5.3952                 1.4671
 Frc consts  --      2.0781                 2.0621                 0.5995
 IR Inten    --     13.8479                13.1707                17.9798

                     28                     29                     30
                      A                      A                      A
 Frequencies --    850.0649               885.2662               922.4276
 Red. masses --      1.6089                 2.0477                 4.7231
 Frc consts  --      0.6850                 0.9455                 2.3678
 IR Inten    --     36.1164                 0.3011                29.8228

                     31                     32                     33
                      A                      A                      A
 Frequencies --    954.9399               968.4148               989.2369
 Red. masses --      1.3119                 3.6346                 1.1241
 Frc consts  --      0.7048                 2.0083                 0.6481
 IR Inten    --      6.2434                 9.2837                44.0037

                     34                     35                     36
                      A                      A                      A
 Frequencies --   1065.6413              1138.0229              1143.7877
 Red. masses --      3.4398                 1.2629                 1.4939
 Frc consts  --      2.3015                 0.9636                 1.1515
 IR Inten    --     35.4778                 0.5798                39.3544

                     37                     38                     39
                      A                      A                      A
 Frequencies --   1184.9820              1186.4072              1212.3034
 Red. masses --      1.5148                 1.3467                 1.4325
 Frc consts  --      1.2532                 1.1168                 1.2404
 IR Inten    --     62.5751                31.7384               228.3517

                     40                     41                     42
                      A                      A                      A
 Frequencies --   1223.9187              1253.8748              1278.5431
 Red. masses --      1.6415                 1.6651                 2.8789
 Frc consts  --      1.4488                 1.5424                 2.7727
 IR Inten    --     32.0478                38.2724                44.0223

                     43                     44                     45
                      A                      A                      A
 Frequencies --   1319.6645              1322.5046              1360.1214
 Red. masses --      1.6049                 2.7196                 4.1065
 Frc consts  --      1.6467                 2.8026                 4.4759
 IR Inten    --      5.7886               755.7839               208.6594

                     46                     47                     48
                      A                      A                      A
 Frequencies --   1367.4454              1427.8327              1460.0509
 Red. masses --      1.6426                 3.3075                 1.5215
 Frc consts  --      1.8097                 3.9729                 1.9110
 IR Inten    --     36.9746                32.6202                 7.5151

                     49                     50                     51
                      A                      A                      A
 Frequencies --   1483.2678              1492.5847              1509.0315
 Red. masses --      2.2917                 1.0485                 1.1205
 Frc consts  --      2.9706                 1.3763                 1.5033
 IR Inten    --     30.6944                10.7032                50.1531

                     52                     53                     54
                      A                      A                      A
 Frequencies --   1574.4845              1648.5487              1671.2994
 Red. masses --      3.8649                 6.5347                 6.5848
 Frc consts  --      5.6450                10.4636                10.8368
 IR Inten    --    300.9719               212.1275                69.1529

                     55                     56                     57
                      A                      A                      A
 Frequencies --   1707.6279              1830.4677              3023.5304
 Red. masses --      5.7752                10.0938                 1.0357
 Frc consts  --      9.9220                19.9263                 5.5785
 IR Inten    --     65.5957               563.8030                44.8416

                     58                     59                     60
                      A                      A                      A
 Frequencies --   3098.9644              3124.6213              3183.6500
 Red. masses --      1.1095                 1.0880                 1.1002
 Frc consts  --      6.2780                 6.2587                 6.5702
 IR Inten    --     27.9955                33.2812                15.7036

                     61                     62                     63
                      A                      A                      A
 Frequencies --   3218.1973              3220.4090              3229.5796
 Red. masses --      1.0899                 1.0884                 1.0906
 Frc consts  --      6.6507                 6.6507                 6.7020
 IR Inten    --      5.0437                 3.6140                 2.8002

                     64                     65                     66
                      A                      A                      A
 Frequencies --   3235.8358              3807.7279              3866.3397
 Red. masses --      1.0955                 1.0653                 1.0655
 Frc consts  --      6.7580                 9.1004                 9.3841
 IR Inten    --      2.6321               166.4056                19.0245

 - Thermochemistry -
 -------------------
 Temperature   298.150 Kelvin.  Pressure   1.00000 Atm.
 Atom     1 has atomic number  6 and mass  12.00000

 Molecular mass:   194.05791 amu.
 Principal axes and moments of inertia in atomic units:
                           1         2         3
     Eigenvalues --  1164.130196319.873687472.41952
           X            0.99994   0.01128   0.00000
           Y           -0.01128   0.99994  -0.00001
           Z           -0.00000   0.00001   1.00000
 This molecule is an asymmetric top.
 Rotational symmetry number  1.
 Warning -- assumption of classical behavior for rotation
           may cause significant error
 Rotational temperatures (Kelvin)      0.07440     0.01370     0.01159
 Rotational constants (GHZ):           1.55029     0.28557     0.24152
    1 imaginary frequencies ignored.
 Zero-point vibrational energy     486313.6 (Joules/Mol)
                                  116.23175 (Kcal/Mol)
 Warning -- explicit consideration of  20 degrees of freedom as
           vibrations may cause significant error
 Vibrational temperatures:     19.36    99.72   101.68   110.77   237.41
          (Kelvin)            259.19   316.85   327.90   378.11   411.64
                              510.18   511.77   565.58   657.59   698.21
                              698.71   739.98   816.89   838.18   841.97
                              943.82  1015.42  1048.90  1123.58  1158.83
                             1198.17  1223.05  1273.70  1327.17  1373.94
                             1393.33  1423.29  1533.22  1637.36  1645.65
                             1704.92  1706.97  1744.23  1760.94  1804.04
                             1839.54  1898.70  1902.79  1956.91  1967.45
                             2054.33  2100.68  2134.09  2147.49  2171.16
                             2265.33  2371.89  2404.62  2456.89  2633.63
                             4350.18  4458.71  4495.63  4580.56  4630.26
                             4633.44  4646.64  4655.64  5478.46  5562.79

 Zero-point correction=                           0.185227 (Hartree/Particle)
 Thermal correction to Energy=                    0.198101
 Thermal correction to Enthalpy=                  0.199045
 Thermal correction to Gibbs Free Energy=         0.143929
 Sum of electronic and zero-point Energies=           -687.272144
 Sum of electronic and thermal Energies=              -687.259270
 Sum of electronic and thermal Enthalpies=            -687.258326
 Sum of electronic and thermal Free Energies=         -687.313442

                     E (Thermal)             CV                S
                      KCal/Mol        Cal/Mol-Kelvin    Cal/Mol-Kelvin
 Total                  124.310             47.931            116.002
 Electronic               0.000              0.000              0.000
 Translational            0.889              2.981             41.694
 Rotational               0.889              2.981             32.375
 Vibrational            122.533             41.970             41.932
 Vibration     1          0.593              1.987              7.422
 Vibration     2          0.598              1.969              4.173
 Vibration     3          0.598              1.968              4.135
 Vibration     4          0.599              1.965              3.966
 Vibration     5          0.623              1.885              2.492
 Vibration     6          0.629              1.867              2.327
 Vibration     7          0.647              1.810              1.957
 Vibration     8          0.651              1.798              1.895
 Vibration     9          0.670              1.741              1.643
 Vibration    10          0.684              1.699              1.497
 Vibration    11          0.730              1.566              1.146
 Vibration    12          0.731              1.564              1.141
 Vibration    13          0.760              1.485              0.988
 Vibration    14          0.815              1.345              0.775
 Vibration    15          0.841              1.283              0.696
 Vibration    16          0.842              1.282              0.695
 Vibration    17          0.869              1.218              0.623
 Vibration    18          0.924              1.101              0.509
 Vibration    19          0.939              1.069              0.481
 Vibration    20          0.942              1.063              0.476

 Optimization completed.
    -- Stationary point found.
 Normal termination of Gaussian 09 at Tue May 28 17:39:44 2024.
