 Gaussian 09, Revision E.01,
 Gaussian 09:  ES64L-G09RevE.01 30-Nov-2015

 ---------------------------
 # opt freq apfd/6-31+g(d,p)
 ---------------------------

 ----------
 [No Title]
 ----------
 Symbolic Z-matrix:
 Charge =  1 Multiplicity = 1

 SCF Done:  E(RAPFD) =  -687.816833310     A.U. after   15 cycles
 SCF Done:  E(RAPFD) =  -687.817135103     A.U. after   11 cycles
 SCF Done:  E(RAPFD) =  -687.817161142     A.U. after   10 cycles
 SCF Done:  E(RAPFD) =  -687.817163716     A.U. after    9 cycles
 SCF Done:  E(RAPFD) =  -687.817164366     A.U. after   10 cycles
 SCF Done:  E(RAPFD) =  -687.817165120     A.U. after   10 cycles
 SCF Done:  E(RAPFD) =  -687.817165585     A.U. after    9 cycles
 SCF Done:  E(RAPFD) =  -687.817165855     A.U. after    9 cycles
 Optimization completed.
    -- Stationary point found.
 Normal termination of Gaussian 09 at Tue May 28 18:39:27 2024.

 ----------------------------------------------------------------------
 #N Geom=AllCheck Guess=TCheck SCRF=Check GenChk RAPFD/6-31+G(d,p) Freq
 ----------------------------------------------------------------------

 Structure from the checkpoint file:  "APFDFAyang.chk"
 ----------
 [No Title]
 ----------
 Charge =  1 Multiplicity = 1

                         Standard orientation:
 ---------------------------------------------------------------------
 Center     Atomic      Atomic             Coordinates (Angstroms)
 Number     Number       Type             X           Y           Z
 ---------------------------------------------------------------------
      1          6           0        1.467405   -2.026429   -0.024035
      2          6           0        2.506615   -1.084888   -0.011936
      3          6           0        2.224325    0.310161    0.004957
      4          6           0        0.915909    0.737744    0.011209
      5          6           0       -0.148515   -0.210129    0.001817
      6          6           0        0.160098   -1.595433   -0.018748
      7          8           0        3.761446   -1.501857   -0.017868
      8          6           0       -1.473451    0.277254    0.009548
      9          6           0       -2.642453   -0.469847    0.018536
     10          6           0       -3.889146    0.138316    0.000075
     11          8           0       -4.954821   -0.629393    0.106040
     12          8           0       -4.000915    1.448226   -0.131539
     13          8           0        3.342623    1.065216    0.013006
     14          6           0        3.210797    2.483074    0.031464
     15          1           0        1.724908   -3.080466   -0.039441
     16          1           0        0.682658    1.797683    0.024324
     17          1           0       -0.635947   -2.332314   -0.031213
     18          1           0        4.357127   -0.733389   -0.008709
     19          1           0       -1.587834    1.360853    0.008447
     20          1           0       -2.650197   -1.552922    0.041264
     21          1           0       -5.795464   -0.198765   -0.105303
     22          1           0       -4.867398    1.806071    0.107917
     23          1           0        4.225982    2.876266    0.035454
     24          1           0        2.684031    2.831930   -0.863285
     25          1           0        2.685968    2.808580    0.936108
 ---------------------------------------------------------------------

 SCF Done:  E(RAPFD) =  -687.817165855     A.U. after    1 cycles

 The electronic state is 1-A.
 Alpha  occ. eigenvalues --  -19.43423 -19.43252 -19.37387 -19.37152 -10.53977
 Alpha  occ. eigenvalues --  -10.43480 -10.41915 -10.40676 -10.38367 -10.37675
 Alpha  occ. eigenvalues --  -10.37660 -10.37012 -10.36921 -10.35645  -1.33719
 Alpha  occ. eigenvalues --   -1.25999  -1.25324  -1.22172  -1.03008  -0.99041
 Alpha  occ. eigenvalues --   -0.93172  -0.91857  -0.86945  -0.84609  -0.81432
 Alpha  occ. eigenvalues --   -0.79568  -0.76400  -0.73440  -0.71532  -0.68642
 Alpha  occ. eigenvalues --   -0.66461  -0.65416  -0.64973  -0.63437  -0.61596
 Alpha  occ. eigenvalues --   -0.60070  -0.59171  -0.57742  -0.56718  -0.56640
 Alpha  occ. eigenvalues --   -0.56314  -0.54349  -0.53961  -0.53040  -0.51788
 Alpha  occ. eigenvalues --   -0.49285  -0.48586  -0.48399  -0.44503  -0.39537
 Alpha  occ. eigenvalues --   -0.36036
 Alpha virt. eigenvalues --   -0.24542  -0.15090  -0.13809  -0.13706  -0.09637
 Alpha virt. eigenvalues --   -0.08960  -0.08489  -0.08387  -0.07281  -0.06509
 Alpha virt. eigenvalues --   -0.05549  -0.05164  -0.04438  -0.03955  -0.03787

 Mulliken charges:
               1
     1  C    0.140955
     2  C   -0.307618
     3  C    0.085175
     4  C   -0.172044
     5  C    0.310951
     6  C   -0.262830
     7  O   -0.433619
     8  C    0.074791
     9  C   -0.668702
    10  C    0.949687
    11  O   -0.394645
    12  O   -0.445254
    13  O   -0.404026
    14  C   -0.173699
    15  H    0.206550
    16  H    0.175967
    17  H    0.172393
    18  H    0.416088
    19  H    0.191064
    20  H    0.192979
    21  H    0.394107
    22  H    0.396882
    23  H    0.198139
    24  H    0.178423
    25  H    0.178286
 Sum of Mulliken charges =   1.00000

 Dipole moment (field-independent basis, Debye):
    X=             -7.7639    Y=              3.5058    Z=              0.0744  Tot=              8.5190
 Quadrupole moment (field-independent basis, Debye-Ang):
   XX=              9.7989   YY=            -61.1712   ZZ=            -82.6470
   XY=             -2.4802   XZ=              0.3010   YZ=              1.1999

  Exact polarizability: 311.523 -19.339 132.560  -0.481   0.049  68.245
 Approx polarizability: 542.729 -63.449 207.412  -1.484  -0.258  99.362

                      1                      2                      3
                      A                      A                      A
 Frequencies --     48.5738                60.4008                78.7309
 Red. masses --      6.3581                 5.8014                 5.1784
 Frc consts  --      0.0088                 0.0125                 0.0189
 IR Inten    --      0.4504                 2.1308                 0.9062

                      4                      5                      6
                      A                      A                      A
 Frequencies --     93.5866               144.8955               178.6082
 Red. masses --      3.2821                 5.2258                 2.6005
 Frc consts  --      0.0169                 0.0646                 0.0489
 IR Inten    --      5.4656                 3.0744                24.0243

                      7                      8                      9
                      A                      A                      A
 Frequencies --    196.0316               225.1559               235.6449
 Red. masses --      3.5814                 4.8937                 1.3086
 Frc consts  --      0.0811                 0.1462                 0.0428
 IR Inten    --      7.6819                20.4472                37.5708

                     10                     11                     12
                      A                      A                      A
 Frequencies --    269.7293               304.8510               326.8358
 Red. masses --      1.4061                 5.2920                 3.1508
 Frc consts  --      0.0603                 0.2898                 0.1983
 IR Inten    --    107.5667                 0.2391                16.7894

                     13                     14                     15
                      A                      A                      A
 Frequencies --    355.2454               370.6000               424.8100
 Red. masses --      4.6300                 2.1132                 1.1871
 Frc consts  --      0.3443                 0.1710                 0.1262
 IR Inten    --     12.0182                28.1908               257.8817

                     16                     17                     18
                      A                      A                      A
 Frequencies --    459.7030               497.2743               524.1925
 Red. masses --      3.1916                 5.7924                 5.4722
 Frc consts  --      0.3974                 0.8439                 0.8859
 IR Inten    --      0.4672                 9.8887                10.0035

                     19                     20                     21
                      A                      A                      A
 Frequencies --    571.8202               579.8803               587.0617
 Red. masses --      5.0415                 2.8941                 3.6644
 Frc consts  --      0.9712                 0.5734                 0.7441
 IR Inten    --     44.8423                30.6165                11.9934

                     22                     23                     24
                      A                      A                      A
 Frequencies --    614.2332               641.6815               696.3029
 Red. masses --      1.2120                 4.4065                 5.1623
 Frc consts  --      0.2694                 1.0690                 1.4747
 IR Inten    --     89.8612                 5.5626                 4.3655

                     25                     26                     27
                      A                      A                      A
 Frequencies --    726.5240               785.7469               830.6842
 Red. masses --      5.1398                 5.6050                 5.3361
 Frc consts  --      1.5985                 2.0389                 2.1694
 IR Inten    --      0.6376                16.5335                 1.7614

                     28                     29                     30
                      A                      A                      A
 Frequencies --    834.3386               863.9354               874.9614
 Red. masses --      1.5604                 1.5382                 1.4050
 Frc consts  --      0.6400                 0.6765                 0.6337
 IR Inten    --      7.5164                66.5636                 5.5394

                     31                     32                     33
                      A                      A                      A
 Frequencies --    967.5232               973.0212              1001.0709
 Red. masses --      3.5247                 1.3103                 3.5586
 Frc consts  --      1.9440                 0.7309                 2.1011
 IR Inten    --     62.3837                 1.8726                99.4395

                     34                     35                     36
                      A                      A                      A
 Frequencies --   1004.4567              1053.2173              1132.4292
 Red. masses --      1.4622                 3.9840                 1.2582
 Frc consts  --      0.8692                 2.6038                 0.9507
 IR Inten    --     24.6585                50.8958                 0.6852

                     37                     38                     39
                      A                      A                      A
 Frequencies --   1147.1165              1152.1532              1181.3618
 Red. masses --      1.1442                 1.4899                 1.4957
 Frc consts  --      0.8871                 1.1653                 1.2298
 IR Inten    --    165.5684               126.7325              1284.7020

                     40                     41                     42
                      A                      A                      A
 Frequencies --   1192.0438              1229.1099              1231.2011
 Red. masses --      1.3096                 1.3559                 1.3804
 Frc consts  --      1.0964                 1.2068                 1.2329
 IR Inten    --     34.3482               121.0897                26.7953

                     43                     44                     45
                      A                      A                      A
 Frequencies --   1278.9241              1312.1431              1341.8586
 Red. masses --      1.9927                 1.9374                 2.7567
 Frc consts  --      1.9203                 1.9653                 2.9245
 IR Inten    --     46.3886                89.2495                42.1861

                     46                     47                     48
                      A                      A                      A
 Frequencies --   1351.5003              1388.6642              1445.6902
 Red. masses --      1.3104                 3.7972                 3.1711
 Frc consts  --      1.4102                 4.3143                 3.9049
 IR Inten    --    210.1372               406.6966               224.4656

                     49                     50                     51
                      A                      A                      A
 Frequencies --   1464.7701              1490.5766              1494.3491
 Red. masses --      1.3310                 3.4259                 1.0487
 Frc consts  --      1.6826                 4.4847                 1.3798
 IR Inten    --     26.5108               258.0756                14.8559

                     52                     53                     54
                      A                      A                      A
 Frequencies --   1501.7702              1517.0520              1580.5141
 Red. masses --      1.3918                 3.4579                 4.2085
 Frc consts  --      1.8494                 4.6888                 6.1941
 IR Inten    --    145.2460                25.8721               920.4295

                     55                     56                     57
                      A                      A                      A
 Frequencies --   1620.5767              1631.3320              1649.6088
 Red. masses --      5.1070                 4.7746                 5.0315
 Frc consts  --      7.9023                 7.4864                 8.0670
 IR Inten    --    645.0769                15.2478              1207.3038

                     58                     59                     60
                      A                      A                      A
 Frequencies --   1697.2691              3037.6583              3121.6583
 Red. masses --      5.7111                 1.0353                 1.1110
 Frc consts  --      9.6933                 5.6288                 6.3787
 IR Inten    --    402.9781                25.2874                16.6743

                     61                     62                     63
                      A                      A                      A
 Frequencies --   3191.7000              3205.5239              3231.8763
 Red. masses --      1.0903                 1.1016                 1.0910
 Frc consts  --      6.5442                 6.6691                 6.7143
 IR Inten    --      0.4149                 4.0403                 1.5268

                     64                     65                     66
                      A                      A                      A
 Frequencies --   3232.4212              3247.1603              3256.5165
 Red. masses --      1.0893                 1.0967                 1.0913
 Frc consts  --      6.7057                 6.8134                 6.8184
 IR Inten    --      1.8590                 0.8189                 2.1934

                     67                     68                     69
                      A                      A                      A
 Frequencies --   3749.0818              3822.1804              3831.9202
 Red. masses --      1.0652                 1.0680                 1.0663
 Frc consts  --      8.8209                 9.1927                 9.2247
 IR Inten    --    362.4812                78.3199               670.2076

 - Thermochemistry -
 -------------------
 Temperature   298.150 Kelvin.  Pressure   1.00000 Atm.
 Atom     1 has atomic number  6 and mass  12.00000

 Molecular mass:   195.06573 amu.
 Principal axes and moments of inertia in atomic units:
                           1         2         3
     Eigenvalues --  1166.774316303.821437455.18247
           X            0.99994   0.01091   0.00015
           Y           -0.01091   0.99994   0.00215
           Z           -0.00013  -0.00215   1.00000
 This molecule is an asymmetric top.
 Rotational symmetry number  1.
 Warning -- assumption of classical behavior for rotation
           may cause significant error
 Rotational temperatures (Kelvin)      0.07423     0.01374     0.01162
 Rotational constants (GHZ):           1.54678     0.28629     0.24208
 Zero-point vibrational energy     522535.1 (Joules/Mol)
                                  124.88888 (Kcal/Mol)
 Warning -- explicit consideration of  22 degrees of freedom as
           vibrations may cause significant error
 Vibrational temperatures:     69.89    86.90   113.28   134.65   208.47
          (Kelvin)            256.98   282.05   323.95   339.04   388.08
                              438.61   470.24   511.12   533.21   611.21
                              661.41   715.47   754.20   822.72   834.32
                              844.65   883.74   923.24  1001.82  1045.30
                             1130.51  1195.17  1200.43  1243.01  1258.87
                             1392.05  1399.96  1440.32  1445.19  1515.34
                             1629.31  1650.44  1657.69  1699.71  1715.08
                             1768.41  1771.42  1840.08  1887.88  1930.63
                             1944.51  1997.98  2080.02  2107.47  2144.60
                             2150.03  2160.71  2182.70  2274.00  2331.65
                             2347.12  2373.42  2441.99  4370.51  4491.36
                             4592.14  4612.03  4649.94  4650.73  4671.93
                             4685.39  5394.09  5499.26  5513.27

 Zero-point correction=                           0.199023 (Hartree/Particle)
 Thermal correction to Energy=                    0.212577
 Thermal correction to Enthalpy=                  0.213521
 Thermal correction to Gibbs Free Energy=         0.158371
 Sum of electronic and zero-point Energies=           -687.618143
 Sum of electronic and thermal Energies=              -687.604589
 Sum of electronic and thermal Enthalpies=            -687.603645
 Sum of electronic and thermal Free Energies=         -687.658795

                     E (Thermal)             CV                S
                      KCal/Mol        Cal/Mol-Kelvin    Cal/Mol-Kelvin
 Total                  133.394             50.907            116.073
 Electronic               0.000              0.000              0.000
 Translational            0.889              2.981             41.710
 Rotational               0.889              2.981             32.372
 Vibrational            131.617             44.945             41.991
 Vibration     1          0.595              1.978              4.875
 Vibration     2          0.597              1.973              4.444
 Vibration     3          0.600              1.963              3.922
 Vibration     4          0.603              1.954              3.584
 Vibration     5          0.616              1.908              2.738
 Vibration     6          0.629              1.869              2.343
 Vibration     7          0.636              1.845              2.170
 Vibration     8          0.650              1.803              1.917
 Vibration     9          0.655              1.786              1.836
 Vibration    10          0.674              1.729              1.598
 Vibration    11          0.696              1.665              1.390
 Vibration    12          0.710              1.622              1.276
 Vibration    13          0.731              1.564              1.143
 Vibration    14          0.743              1.533              1.077
 Vibration    15          0.787              1.416              0.876
 Vibration    16          0.818              1.339              0.767
 Vibration    17          0.853              1.256              0.665
 Vibration    18          0.879              1.196              0.600
 Vibration    19          0.928              1.092              0.501
 Vibration    20          0.937              1.075              0.486
 Vibration    21          0.944              1.059              0.472
 Vibration    22          0.974              1.002              0.426

 Optimization completed.
    -- Stationary point found.
 Normal termination of Gaussian 09 at Tue May 28 18:44:08 2024.
