 Gaussian 09, Revision E.01,
 Gaussian 09:  ES64L-G09RevE.01 30-Nov-2015

 -----------------------------
 # opt freq B2PLYP/6-31+g(d,p)
 -----------------------------

 ----------
 [No Title]
 ----------
 Symbolic Z-matrix:
 Charge =  1 Multiplicity = 1

 SCF Done:  E(RB2PLYP) =  -687.010303613     A.U. after   15 cycles
 E2(B2PLYP) =    -0.6813223710D+00 E(B2PLYP) =    -0.68769162598443D+03
 SCF Done:  E(RB2PLYP) =  -687.009573928     A.U. after   13 cycles
 E2(B2PLYP) =    -0.6826719627D+00 E(B2PLYP) =    -0.68769224589091D+03
 SCF Done:  E(RB2PLYP) =  -687.009444692     A.U. after   11 cycles
 E2(B2PLYP) =    -0.6828603289D+00 E(B2PLYP) =    -0.68769230502081D+03
 SCF Done:  E(RB2PLYP) =  -687.009413213     A.U. after   11 cycles
 E2(B2PLYP) =    -0.6829027948D+00 E(B2PLYP) =    -0.68769231600760D+03
 SCF Done:  E(RB2PLYP) =  -687.009389821     A.U. after   11 cycles
 E2(B2PLYP) =    -0.6829332049D+00 E(B2PLYP) =    -0.68769232302588D+03
 SCF Done:  E(RB2PLYP) =  -687.009378704     A.U. after   12 cycles
 E2(B2PLYP) =    -0.6829524002D+00 E(B2PLYP) =    -0.68769233110443D+03
 SCF Done:  E(RB2PLYP) =  -687.009397903     A.U. after   11 cycles
 E2(B2PLYP) =    -0.6829384717D+00 E(B2PLYP) =    -0.68769233637470D+03
 SCF Done:  E(RB2PLYP) =  -687.009406891     A.U. after   10 cycles
 E2(B2PLYP) =    -0.6829307951D+00 E(B2PLYP) =    -0.68769233768564D+03
 SCF Done:  E(RB2PLYP) =  -687.009406693     A.U. after   10 cycles
 E2(B2PLYP) =    -0.6829313054D+00 E(B2PLYP) =    -0.68769233799833D+03
 SCF Done:  E(RB2PLYP) =  -687.009404552     A.U. after   10 cycles
 E2(B2PLYP) =    -0.6829335631D+00 E(B2PLYP) =    -0.68769233811463D+03
 SCF Done:  E(RB2PLYP) =  -687.009403382     A.U. after    9 cycles
 E2(B2PLYP) =    -0.6829347617D+00 E(B2PLYP) =    -0.68769233814322D+03
 Optimization completed.
    -- Stationary point found.
 Normal termination of Gaussian 09 at Sun Dec 15 03:17:44 2024.

 ----------------------------------------------------------------------
 #N Geom=AllCheck Guess=TCheck SCRF=Check GenChk RB2PLYP(FC)/6-31+G(d,p
 ) Freq
 ----------------------------------------------------------------------

 Structure from the checkpoint file:  "B2PLYPFAyang.chk"
 ----------
 [No Title]
 ----------
 Charge =  1 Multiplicity = 1

                         Standard orientation:
 ---------------------------------------------------------------------
 Center     Atomic      Atomic             Coordinates (Angstroms)
 Number     Number       Type             X           Y           Z
 ---------------------------------------------------------------------
      1          6           0        1.474035   -2.030543   -0.032981
      2          6           0        2.514816   -1.086983   -0.014832
      3          6           0        2.230723    0.309390    0.007106
      4          6           0        0.919167    0.737111    0.011388
      5          6           0       -0.147347   -0.213400   -0.002034
      6          6           0        0.162949   -1.601345   -0.031367
      7          8           0        3.776782   -1.512388   -0.019302
      8          6           0       -1.474720    0.274974    0.010029
      9          6           0       -2.646798   -0.474025    0.030815
     10          6           0       -3.894306    0.134426    0.002660
     11          8           0       -4.969476   -0.627466    0.135930
     12          8           0       -4.012209    1.446810   -0.166591
     13          8           0        3.349720    1.076551    0.020311
     14          6           0        3.201444    2.505876    0.040096
     15          1           0        1.731405   -3.081719   -0.053542
     16          1           0        0.683290    1.793524    0.028715
     17          1           0       -0.629170   -2.338476   -0.050426
     18          1           0        4.378313   -0.746629   -0.005787
     19          1           0       -1.589204    1.355735    0.003661
     20          1           0       -2.654956   -1.553783    0.069073
     21          1           0       -5.803028   -0.198909   -0.114473
     22          1           0       -4.873380    1.804649    0.099881
     23          1           0        4.212420    2.901703    0.045942
     24          1           0        2.673279    2.843910   -0.853663
     25          1           0        2.672718    2.819057    0.942548
 ---------------------------------------------------------------------

 SCF Done:  E(RB2PLYP) =  -687.009403382     A.U. after    1 cycles
 E2(B2PLYP) =    -0.6829347581D+00 E(B2PLYP) =    -0.68769233813968D+03
 E2(B2PLYP) =    -0.6829347581D+00 E(B2PLYP) =    -0.68769233813968D+03

 The electronic state is 1-A.
 Alpha  occ. eigenvalues --  -19.98977 -19.98723 -19.92002 -19.91347 -10.97152
 Alpha  occ. eigenvalues --  -10.85525 -10.83521 -10.83446 -10.79844 -10.79148
 Alpha  occ. eigenvalues --  -10.79090 -10.78900 -10.78804 -10.76982  -1.46403
 Alpha  occ. eigenvalues --   -1.38304  -1.36818  -1.33528  -1.13775  -1.09329
 Alpha  occ. eigenvalues --   -1.02756  -1.01420  -0.95596  -0.93175  -0.88447
 Alpha  occ. eigenvalues --   -0.87500  -0.84466  -0.80921  -0.78385  -0.75904
 Alpha  occ. eigenvalues --   -0.73280  -0.72417  -0.71727  -0.70153  -0.67819
 Alpha  occ. eigenvalues --   -0.66749  -0.65582  -0.64020  -0.63379  -0.62695
 Alpha  occ. eigenvalues --   -0.62398  -0.61091  -0.60164  -0.59303  -0.56725
 Alpha  occ. eigenvalues --   -0.55166  -0.54338  -0.53726  -0.48563  -0.42711
 Alpha  occ. eigenvalues --   -0.38780
 Alpha virt. eigenvalues --   -0.20292  -0.12456  -0.08640  -0.08450  -0.07529
 Alpha virt. eigenvalues --   -0.06570  -0.05957  -0.05572  -0.04318  -0.04060
 Alpha virt. eigenvalues --   -0.03078  -0.02609  -0.02099  -0.01705  -0.01459

 Mulliken charges:
               1
     1  C    0.200835
     2  C   -0.165642
     3  C    0.128221
     4  C   -0.164437
     5  C    0.195453
     6  C   -0.243371
     7  O   -0.500244
     8  C    0.109356
     9  C   -0.629691
    10  C    0.985738
    11  O   -0.444935
    12  O   -0.497263
    13  O   -0.495894
    14  C   -0.080257
    15  H    0.197024
    16  H    0.168902
    17  H    0.164646
    18  H    0.423312
    19  H    0.186630
    20  H    0.182913
    21  H    0.397605
    22  H    0.398972
    23  H    0.176193
    24  H    0.153023
    25  H    0.152910
 Sum of Mulliken charges =   1.00000

 Dipole moment (field-independent basis, Debye):
    X=             -8.2697    Y=              3.6693    Z=              0.0605  Tot=              9.0474
 Quadrupole moment (field-independent basis, Debye-Ang):
   XX=              6.1796   YY=            -62.2113   ZZ=            -83.4415
   XY=             -2.2733   XZ=              0.5412   YZ=              1.4187

  Exact polarizability: 327.762 -22.255 134.109  -0.648   0.023  69.538
 Approx polarizability: 333.744 -32.291 159.093  -1.041  -0.192  88.222

                      1                      2                      3
                      A                      A                      A
 Frequencies --     46.3465                58.3815                83.4278
 Red. masses --      6.0621                 5.5408                 4.2537
 Frc consts  --      0.0077                 0.0111                 0.0174
 IR Inten    --      0.1794                 1.3462                 3.6524

                      4                      5                      6
                      A                      A                      A
 Frequencies --     85.5248               137.6569               172.5578
 Red. masses --      3.9406                 5.3138                 2.6389
 Frc consts  --      0.0170                 0.0593                 0.0463
 IR Inten    --      3.8429                 2.5455                11.7977

                      7                      8                      9
                      A                      A                      A
 Frequencies --    193.3928               225.1532               228.0510
 Red. masses --      3.6028                 1.3456                 5.9878
 Frc consts  --      0.0794                 0.0402                 0.1835
 IR Inten    --     11.0839                18.1659                 4.3469

                     10                     11                     12
                      A                      A                      A
 Frequencies --    277.3909               308.4956               317.5252
 Red. masses --      1.5740                 5.5293                 2.8352
 Frc consts  --      0.0714                 0.3100                 0.1684
 IR Inten    --    162.0444                 0.5144                50.4708

                     13                     14                     15
                      A                      A                      A
 Frequencies --    353.2067               359.8713               426.3180
 Red. masses --      4.6723                 1.8720                 1.1937
 Frc consts  --      0.3434                 0.1428                 0.1278
 IR Inten    --      8.5413                76.2610               253.7036

                     16                     17                     18
                      A                      A                      A
 Frequencies --    437.0219               495.7401               519.6336
 Red. masses --      3.5860                 5.7611                 5.0993
 Frc consts  --      0.4035                 0.8342                 0.8113
 IR Inten    --      0.5906                11.2636                12.9005

                     19                     20                     21
                      A                      A                      A
 Frequencies --    527.4059               562.9375               583.1908
 Red. masses --      5.3471                 4.5020                 3.1767
 Frc consts  --      0.8763                 0.8406                 0.6366
 IR Inten    --     12.8418                32.5306                21.6936

                     22                     23                     24
                      A                      A                      A
 Frequencies --    584.8725               607.9274               630.5909
 Red. masses --      1.1926                 6.9704                 4.7347
 Frc consts  --      0.2404                 1.5178                 1.1093
 IR Inten    --    102.7562                 0.1721                13.6933

                     25                     26                     27
                      A                      A                      A
 Frequencies --    678.1373               780.5141               805.5104
 Red. masses --      5.5531                 5.7169                 1.3977
 Frc consts  --      1.5046                 2.0520                 0.5343
 IR Inten    --      6.1943                18.3557                 0.5458

                     28                     29                     30
                      A                      A                      A
 Frequencies --    830.8358               837.6523               840.9321
 Red. masses --      5.3025                 1.3195                 1.4977
 Frc consts  --      2.1566                 0.5455                 0.6240
 IR Inten    --      1.2466                38.2470                39.7896

                     31                     32                     33
                      A                      A                      A
 Frequencies --    939.3767               957.0174               985.6600
 Red. masses --      1.2355                 3.7255                 3.7852
 Frc consts  --      0.6424                 2.0104                 2.1667
 IR Inten    --      0.8561                64.3423               167.1323

                     34                     35                     36
                      A                      A                      A
 Frequencies --    990.7903              1045.0715              1154.1529
 Red. masses --      1.3899                 4.4370                 1.3554
 Frc consts  --      0.8039                 2.8552                 1.0638
 IR Inten    --     25.3802                63.4290               173.3684

                     37                     38                     39
                      A                      A                      A
 Frequencies --   1156.4691              1173.1980              1182.1743
 Red. masses --      1.3594                 1.4935                 1.2568
 Frc consts  --      1.0712                 1.2111                 1.0348
 IR Inten    --    142.8267              1288.0380                 1.3248

                     40                     41                     42
                      A                      A                      A
 Frequencies --   1206.8332              1233.3438              1242.9436
 Red. masses --      1.3562                 1.2993                 1.5794
 Frc consts  --      1.1638                 1.1645                 1.4376
 IR Inten    --     57.0250               171.1234                63.8218

                     43                     44                     45
                      A                      A                      A
 Frequencies --   1282.4598              1315.2346              1340.8488
 Red. masses --      2.0961                 1.7026                 2.3670
 Frc consts  --      2.0312                 1.7353                 2.5073
 IR Inten    --     36.0635                80.2213                82.1961

                     46                     47                     48
                      A                      A                      A
 Frequencies --   1361.0866              1377.1745              1440.5894
 Red. masses --      1.5331                 3.2977                 3.6854
 Frc consts  --      1.6734                 3.6850                 4.5062
 IR Inten    --    435.0395               336.6589               271.5835

                     49                     50                     51
                      A                      A                      A
 Frequencies --   1477.5742              1492.3047              1507.7967
 Red. masses --      4.5039                 1.7364                 2.1529
 Frc consts  --      5.7935                 2.2783                 2.8837
 IR Inten    --    315.1554                 1.2108                12.6809

                     52                     53                     54
                      A                      A                      A
 Frequencies --   1518.7720              1527.7943              1569.3918
 Red. masses --      1.0481                 1.0744                 3.6457
 Frc consts  --      1.4244                 1.4776                 5.2905
 IR Inten    --     13.1512                47.3795               751.7069

                     55                     56                     57
                      A                      A                      A
 Frequencies --   1612.0834              1623.4229              1644.7813
 Red. masses --      4.7720                 4.6941                 4.3654
 Frc consts  --      7.3068                 7.2890                 6.9581
 IR Inten    --    586.7063                35.5457              1405.6037

                     58                     59                     60
                      A                      A                      A
 Frequencies --   1687.4262              3081.4013              3166.9796
 Red. masses --      5.4018                 1.0319                 1.1088
 Frc consts  --      9.0622                 5.7729                 6.5522
 IR Inten    --    516.6145                24.8769                17.7726

                     61                     62                     63
                      A                      A                      A
 Frequencies --   3207.4134              3229.3443              3246.6366
 Red. masses --      1.0900                 1.1036                 1.0906
 Frc consts  --      6.6066                 6.7810                 6.7728
 IR Inten    --      0.3260                 4.6022                 0.9779

                     64                     65                     66
                      A                      A                      A
 Frequencies --   3246.9274              3260.8053              3275.9212
 Red. masses --      1.0897                 1.0965                 1.0909
 Frc consts  --      6.7686                 6.8694                 6.8977
 IR Inten    --      2.4373                 0.5397                 2.0630

                     67                     68                     69
                      A                      A                      A
 Frequencies --   3729.8772              3790.0168              3799.4888
 Red. masses --      1.0652                 1.0680                 1.0662
 Frc consts  --      8.7315                 9.0387                 9.0688
 IR Inten    --    402.6855                83.5377               681.1591

 - Thermochemistry -
 -------------------
 Temperature   298.150 Kelvin.  Pressure   1.00000 Atm.
 Atom     1 has atomic number  6 and mass  12.00000

 Molecular mass:   195.06573 amu.
 Principal axes and moments of inertia in atomic units:
                           1         2         3
     Eigenvalues --  1178.485616332.627917493.41607
           X            0.99994   0.01085   0.00022
           Y           -0.01085   0.99994   0.00246
           Z           -0.00019  -0.00247   1.00000
 This molecule is an asymmetric top.
 Rotational symmetry number  1.
 Warning -- assumption of classical behavior for rotation
           may cause significant error
 Rotational temperatures (Kelvin)      0.07350     0.01368     0.01156
 Rotational constants (GHZ):           1.53141     0.28499     0.24084
 Zero-point vibrational energy     520834.8 (Joules/Mol)
                                  124.48251 (Kcal/Mol)
 Warning -- explicit consideration of  23 degrees of freedom as
           vibrations may cause significant error
 Vibrational temperatures:     66.68    84.00   120.03   123.05   198.06
          (Kelvin)            248.27   278.25   323.94   328.11   399.10
                              443.86   456.85   508.19   517.77   613.38
                              628.78   713.26   747.64   758.82   809.94
                              839.08   841.50   874.67   907.28   975.69
                             1122.98  1158.95  1195.39  1205.19  1209.91
                             1351.55  1376.93  1418.14  1425.52  1503.62
                             1660.57  1663.90  1687.97  1700.88  1736.36
                             1774.50  1788.32  1845.17  1892.33  1929.18
                             1958.30  1981.44  2072.68  2125.90  2147.09
                             2169.38  2185.17  2198.15  2258.00  2319.43
                             2335.74  2366.47  2427.83  4433.44  4556.57
                             4614.75  4646.30  4671.18  4671.60  4691.57
                             4713.31  5366.45  5452.98  5466.61

 Zero-point correction=                           0.198376 (Hartree/Particle)
 Thermal correction to Energy=                    0.212168
 Thermal correction to Enthalpy=                  0.213112
 Thermal correction to Gibbs Free Energy=         0.157456
 Sum of electronic and zero-point Energies=           -687.493963
 Sum of electronic and thermal Energies=              -687.480170
 Sum of electronic and thermal Enthalpies=            -687.479226
 Sum of electronic and thermal Free Energies=         -687.534882

                     E (Thermal)             CV                S
                      KCal/Mol        Cal/Mol-Kelvin    Cal/Mol-Kelvin
 Total                  133.137             51.696            117.137
 Electronic               0.000              0.000              0.000
 Translational            0.889              2.981             41.710
 Rotational               0.889              2.981             32.392
 Vibrational            131.360             45.734             43.035
 Vibration     1          0.595              1.979              4.968
 Vibration     2          0.596              1.974              4.511
 Vibration     3          0.600              1.961              3.809
 Vibration     4          0.601              1.959              3.760
 Vibration     5          0.614              1.916              2.836
 Vibration     6          0.626              1.876              2.407
 Vibration     7          0.635              1.849              2.195
 Vibration     8          0.650              1.803              1.917
 Vibration     9          0.651              1.798              1.894
 Vibration    10          0.678              1.715              1.550
 Vibration    11          0.698              1.658              1.370
 Vibration    12          0.704              1.640              1.323
 Vibration    13          0.729              1.569              1.152
 Vibration    14          0.734              1.555              1.123
 Vibration    15          0.788              1.413              0.871
 Vibration    16          0.797              1.389              0.836
 Vibration    17          0.851              1.259              0.669
 Vibration    18          0.875              1.207              0.611
 Vibration    19          0.882              1.189              0.593
 Vibration    20          0.919              1.111              0.518
 Vibration    21          0.940              1.068              0.479
 Vibration    22          0.942              1.064              0.476
 Vibration    23          0.967              1.015              0.436

 Optimization completed.
    -- Stationary point found.
 Normal termination of Gaussian 09 at Sun Dec 15 04:51:22 2024.
