 Gaussian 09, Revision E.01,
 Gaussian 09:  ES64L-G09RevE.01 30-Nov-2015

 -----------------------------
 # opt freq B2PLYP/6-31+g(d,p)
 -----------------------------

 ----------
 [No Title]
 ----------
 Symbolic Z-matrix:
 Charge =  0 Multiplicity = 1

 SCF Done:  E(RB2PLYP) =  -686.652510579     A.U. after   15 cycles
 E2(B2PLYP) =    -0.6850852044D+00 E(B2PLYP) =    -0.68733759578325D+03
 SCF Done:  E(RB2PLYP) =  -686.651504931     A.U. after   13 cycles
 E2(B2PLYP) =    -0.6868012641D+00 E(B2PLYP) =    -0.68733830619547D+03
 SCF Done:  E(RB2PLYP) =  -686.651279144     A.U. after   12 cycles
 E2(B2PLYP) =    -0.6870913041D+00 E(B2PLYP) =    -0.68733837044833D+03
 SCF Done:  E(RB2PLYP) =  -686.651258444     A.U. after   11 cycles
 E2(B2PLYP) =    -0.6871082968D+00 E(B2PLYP) =    -0.68733836674055D+03
 SCF Done:  E(RB2PLYP) =  -686.651265743     A.U. after   11 cycles
 E2(B2PLYP) =    -0.6871090516D+00 E(B2PLYP) =    -0.68733837479443D+03
 SCF Done:  E(RB2PLYP) =  -686.651300112     A.U. after   10 cycles
 E2(B2PLYP) =    -0.6870761905D+00 E(B2PLYP) =    -0.68733837630248D+03
 SCF Done:  E(RB2PLYP) =  -686.651301872     A.U. after    8 cycles
 E2(B2PLYP) =    -0.6870744760D+00 E(B2PLYP) =    -0.68733837634752D+03
 SCF Done:  E(RB2PLYP) =  -686.651305005     A.U. after   10 cycles
 E2(B2PLYP) =    -0.6870714620D+00 E(B2PLYP) =    -0.68733837646661D+03
 SCF Done:  E(RB2PLYP) =  -686.651304265     A.U. after   10 cycles
 E2(B2PLYP) =    -0.6870720243D+00 E(B2PLYP) =    -0.68733837628936D+03
 SCF Done:  E(RB2PLYP) =  -686.649751207     A.U. after   14 cycles
 E2(B2PLYP) =    -0.6853269564D+00 E(B2PLYP) =    -0.68733507816369D+03
 SCF Done:  E(RB2PLYP) =  -686.638294348     A.U. after   14 cycles
 E2(B2PLYP) =    -0.6927997919D+00 E(B2PLYP) =    -0.68733109414020D+03
 SCF Done:  E(RB2PLYP) =  -686.632784761     A.U. after   14 cycles
 E2(B2PLYP) =    -0.6947716358D+00 E(B2PLYP) =    -0.68732755639728D+03
 SCF Done:  E(RB2PLYP) =  -686.651300259     A.U. after    4 cycles
 E2(B2PLYP) =    -0.6870762105D+00 E(B2PLYP) =    -0.68733837646996D+03
 Optimization completed.
    -- Stationary point found.
 Normal termination of Gaussian 09 at Sat Dec 14 23:47:26 2024.

 ----------------------------------------------------------------------
 #N Geom=AllCheck Guess=TCheck SCRF=Check GenChk RB2PLYP(FC)/6-31+G(d,p
 ) Freq
 ----------------------------------------------------------------------

 Structure from the checkpoint file:  "B2PLYPFA.chk"
 ----------
 [No Title]
 ----------
 Charge =  0 Multiplicity = 1

                         Standard orientation:
 ---------------------------------------------------------------------
 Center     Atomic      Atomic             Coordinates (Angstroms)
 Number     Number       Type             X           Y           Z
 ---------------------------------------------------------------------
      1          6           0        1.461419   -2.016266   -0.001788
      2          6           0        2.495153   -1.081944   -0.000654
      3          6           0        2.192143    0.294031    0.000341
      4          6           0        0.867607    0.715878    0.000272
      5          6           0       -0.185561   -0.225279   -0.000843
      6          6           0        0.134160   -1.593401   -0.001955
      7          8           0        3.788100   -1.502821   -0.000574
      8          6           0       -1.559366    0.276750   -0.000689
      9          6           0       -2.697135   -0.450108    0.000535
     10          8           0        3.300967    1.104220    0.001354
     11          6           0        3.098372    2.516774    0.002520
     12          6           0       -4.080491    0.074887    0.000940
     13          8           0       -5.047735   -0.661848    0.007471
     14          8           0       -4.277122    1.427012   -0.006254
     15          1           0        1.714779   -3.069155   -0.002611
     16          1           0        0.631536    1.772802    0.001127
     17          1           0       -0.651192   -2.338449   -0.002955
     18          1           0        4.360168   -0.719875    0.000298
     19          1           0       -1.621450    1.364759   -0.001020
     20          1           0       -2.671775   -1.532396    0.002308
     21          1           0        4.092257    2.957089    0.003206
     22          1           0        2.555800    2.831589   -0.892705
     23          1           0        2.555247    2.830034    0.897955
     24          1           0       -3.436859    1.903162   -0.013658
 ---------------------------------------------------------------------

 SCF Done:  E(RB2PLYP) =  -686.651300259     A.U. after    1 cycles
 E2(B2PLYP) =    -0.6870762104D+00 E(B2PLYP) =    -0.68733837646988D+03
 E2(B2PLYP) =    -0.6870762104D+00 E(B2PLYP) =    -0.68733837646988D+03

 The electronic state is 1-A.
 Alpha  occ. eigenvalues --  -19.81042 -19.79945 -19.79612 -19.73451 -10.77607
 Alpha  occ. eigenvalues --  -10.71860 -10.71774 -10.70829 -10.68392 -10.66712
 Alpha  occ. eigenvalues --  -10.66458 -10.65852 -10.65654 -10.65194  -1.25032
 Alpha  occ. eigenvalues --   -1.24971  -1.21702  -1.16107  -1.01052  -0.94451
 Alpha  occ. eigenvalues --   -0.89448  -0.87955  -0.83166  -0.77521  -0.73049
 Alpha  occ. eigenvalues --   -0.71509  -0.68828  -0.66194  -0.63431  -0.61091
 Alpha  occ. eigenvalues --   -0.59442  -0.57813  -0.56089  -0.54444  -0.53127
 Alpha  occ. eigenvalues --   -0.52215  -0.52137  -0.50782  -0.50712  -0.47890
 Alpha  occ. eigenvalues --   -0.47667  -0.45743  -0.44509  -0.44188  -0.43282
 Alpha  occ. eigenvalues --   -0.42626  -0.38987  -0.35280  -0.35253  -0.30629
 Alpha  occ. eigenvalues --   -0.26365
 Alpha virt. eigenvalues --   -0.03147   0.00870   0.02270   0.02320   0.03202
 Alpha virt. eigenvalues --    0.03851   0.05041   0.05695   0.06524   0.06761
 Alpha virt. eigenvalues --    0.07730   0.07795   0.08453   0.09643   0.09667

 Mulliken charges:
               1
     1  C    0.231514
     2  C   -0.206202
     3  C    0.070437
     4  C   -0.338832
     5  C    0.232494
     6  C   -0.280150
     7  O   -0.561836
     8  C   -0.120661
     9  C    0.214365
    10  O   -0.498452
    11  C   -0.088030
    12  C    0.417931
    13  O   -0.486750
    14  O   -0.476135
    15  H    0.167193
    16  H    0.140224
    17  H    0.146836
    18  H    0.402438
    19  H    0.095779
    20  H    0.158045
    21  H    0.152606
    22  H    0.142933
    23  H    0.142962
    24  H    0.341292
 Sum of Mulliken charges =  -0.00000

 Dipole moment (field-independent basis, Debye):
    X=              6.6260    Y=              3.9388    Z=             -0.0192  Tot=              7.7083
 Quadrupole moment (field-independent basis, Debye-Ang):
   XX=           -118.9375   YY=            -71.0124   ZZ=            -85.4378
   XY=              5.9345   XZ=              0.1020   YZ=             -0.0037

  Exact polarizability: 232.402   4.708 139.164  -0.051  -0.034  73.977
 Approx polarizability: 238.288   9.741 166.070  -0.084  -0.052  92.557

 ******    2 imaginary frequencies (negative Signs) ******

                      1                      2                      3
                      A                      A                      A
 Frequencies --   -129.1591               -43.2258                59.9233
 Red. masses --      2.1077                 5.0820                 3.4263
 Frc consts  --      0.0207                 0.0056                 0.0072
 IR Inten    --     13.6760                 8.3717                 7.0591

                      4                      5                      6
                      A                      A                      A
 Frequencies --     63.9202                85.5648               156.2645
 Red. masses --      6.1400                 6.0899                 4.3852
 Frc consts  --      0.0148                 0.0263                 0.0631
 IR Inten    --      0.0469                 3.8684                 0.3760

                      7                      8                      9
                      A                      A                      A
 Frequencies --    199.6945               203.7317               234.0675
 Red. masses --      3.9012                 1.6957                 7.2647
 Frc consts  --      0.0917                 0.0415                 0.2345
 IR Inten    --      4.0567                 0.0463                 6.7008

                     10                     11                     12
                      A                      A                      A
 Frequencies --    264.9724               304.2949               326.1819
 Red. masses --      1.8743                 6.2621                 3.2376
 Frc consts  --      0.0775                 0.3416                 0.2030
 IR Inten    --      0.1926                 7.1607                 8.3712

                     13                     14                     15
                      A                      A                      A
 Frequencies --    358.8622               372.5794               432.0929
 Red. masses --      4.6873                 1.4614                 3.0850
 Frc consts  --      0.3557                 0.1195                 0.3394
 IR Inten    --      4.1300                75.2385                14.9631

                     16                     17                     18
                      A                      A                      A
 Frequencies --    456.8273               487.3889               501.2161
 Red. masses --      1.1442                 5.3360                 6.5600
 Frc consts  --      0.1407                 0.7468                 0.9710
 IR Inten    --     98.2483                 1.0807                 1.8828

                     19                     20                     21
                      A                      A                      A
 Frequencies --    527.3592               574.4160               577.8524
 Red. masses --      6.1023                 4.1126                 6.4358
 Frc consts  --      0.9999                 0.7995                 1.2662
 IR Inten    --      1.5173                 9.0071                 6.9678

                     22                     23                     24
                      A                      A                      A
 Frequencies --    582.0408               653.4475               695.6728
 Red. masses --      7.3352                 5.7721                 4.7858
 Frc consts  --      1.4641                 1.4521                 1.3646
 IR Inten    --     29.9064                 3.0356                 1.1478

                     25                     26                     27
                      A                      A                      A
 Frequencies --    777.6341               803.4067               813.6101
 Red. masses --      5.9535                 1.3599                 1.3342
 Frc consts  --      2.1212                 0.5171                 0.5204
 IR Inten    --     11.0315                 0.5548                53.8247

                     28                     29                     30
                      A                      A                      A
 Frequencies --    822.9293               833.4037               912.7283
 Red. masses --      5.4235                 1.9892                 5.2479
 Frc consts  --      2.1640                 0.8140                 2.5758
 IR Inten    --     11.8208                 1.1307                35.7668

                     31                     32                     33
                      A                      A                      A
 Frequencies --    914.6655               959.0999               981.9607
 Red. masses --      1.2431                 3.8414                 1.0985
 Frc consts  --      0.6127                 2.0819                 0.6241
 IR Inten    --      4.2301                 5.8999                42.1399

                     34                     35                     36
                      A                      A                      A
 Frequencies --   1064.0108              1155.3333              1183.3951
 Red. masses --      4.3087                 1.6652                 1.2603
 Frc consts  --      2.8740                 1.3096                 1.0399
 IR Inten    --     48.3578                43.2366                 1.1607

                     37                     38                     39
                      A                      A                      A
 Frequencies --   1183.9851              1201.9597              1225.5681
 Red. masses --      1.5870                 1.5637                 1.7116
 Frc consts  --      1.3108                 1.3310                 1.5147
 IR Inten    --     53.7884                22.0877               185.1081

                     40                     41                     42
                      A                      A                      A
 Frequencies --   1237.5215              1270.8169              1302.9617
 Red. masses --      1.3544                 2.4437                 2.2788
 Frc consts  --      1.2221                 2.3252                 2.2794
 IR Inten    --    112.2900                38.6140               318.8941

                     43                     44                     45
                      A                      A                      A
 Frequencies --   1323.1422              1332.6647              1348.6044
 Red. masses --      1.6975                 1.9467                 4.0573
 Frc consts  --      1.7509                 2.0370                 4.3476
 IR Inten    --    354.5762               112.8456               216.7263

                     46                     47                     48
                      A                      A                      A
 Frequencies --   1376.3565              1436.0866              1471.8024
 Red. masses --      1.3759                 2.8701                 3.0957
 Frc consts  --      1.5356                 3.4875                 3.9510
 IR Inten    --      1.0073                28.7994                19.5271

                     49                     50                     51
                      A                      A                      A
 Frequencies --   1502.3543              1516.3329              1532.5165
 Red. masses --      1.3016                 1.0488                 1.0645
 Frc consts  --      1.7309                 1.4207                 1.4730
 IR Inten    --     12.0265                 9.2152                49.3981

                     52                     53                     54
                      A                      A                      A
 Frequencies --   1566.6135              1644.8122              1659.7953
 Red. masses --      3.2544                 5.6599                 6.2089
 Frc consts  --      4.7059                 9.0218                10.0779
 IR Inten    --    245.0191               167.4052                53.9761

                     55                     56                     57
                      A                      A                      A
 Frequencies --   1691.2518              1791.2038              3066.7428
 Red. masses --      5.3031                 9.3664                 1.0325
 Frc consts  --      8.9371                17.7057                 5.7211
 IR Inten    --     42.7417               511.9164                43.6539

                     58                     59                     60
                      A                      A                      A
 Frequencies --   3143.5578              3148.5582              3206.8567
 Red. masses --      1.1075                 1.0878                 1.1022
 Frc consts  --      6.4481                 6.3536                 6.6786
 IR Inten    --     29.0959                33.6542                16.3346

                     61                     62                     63
                      A                      A                      A
 Frequencies --   3234.8758              3235.6111              3246.9439
 Red. masses --      1.0887                 1.0898                 1.0924
 Frc consts  --      6.7124                 6.7223                 6.7853
 IR Inten    --      5.4593                 5.3582                 0.3153

                     64                     65                     66
                      A                      A                      A
 Frequencies --   3253.2030              3786.5496              3842.3345
 Red. masses --      1.0924                 1.0653                 1.0655
 Frc consts  --      6.8115                 8.9991                 9.2684
 IR Inten    --      4.5362               159.9755                19.2015

 - Thermochemistry -
 -------------------
 Temperature   298.150 Kelvin.  Pressure   1.00000 Atm.
 Atom     1 has atomic number  6 and mass  12.00000

 Molecular mass:   194.05791 amu.
 Principal axes and moments of inertia in atomic units:
                           1         2         3
     Eigenvalues --  1173.214676354.208237515.86865
           X            0.99994   0.01119   0.00004
           Y           -0.01119   0.99994   0.00003
           Z           -0.00004  -0.00003   1.00000
 This molecule is an asymmetric top.
 Rotational symmetry number  1.
 Warning -- assumption of classical behavior for rotation
           may cause significant error
 Rotational temperatures (Kelvin)      0.07383     0.01363     0.01152
 Rotational constants (GHZ):           1.53829     0.28402     0.24012
    2 imaginary frequencies ignored.
 Zero-point vibrational energy     485218.1 (Joules/Mol)
                                  115.96991 (Kcal/Mol)
 Warning -- explicit consideration of  20 degrees of freedom as
           vibrations may cause significant error
 Vibrational temperatures:     86.22    91.97   123.11   224.83   287.32
          (Kelvin)            293.12   336.77   381.24   437.81   469.30
                              516.32   536.06   621.68   657.27   701.24
                              721.14   758.75   826.46   831.40   837.43
                              940.16  1000.92  1118.84  1155.92  1170.60
                             1184.01  1199.08  1313.21  1316.00  1379.93
                             1412.82  1530.87  1662.26  1702.64  1703.49
                             1729.35  1763.32  1780.52  1828.42  1874.67
                             1903.70  1917.40  1940.34  1980.27  2066.21
                             2117.59  2161.55  2181.66  2204.95  2254.00
                             2366.51  2388.07  2433.33  2577.14  4412.35
                             4522.87  4530.07  4613.95  4654.26  4655.32
                             4671.62  4680.63  5447.99  5528.26

 Zero-point correction=                           0.184810 (Hartree/Particle)
 Thermal correction to Energy=                    0.196998
 Thermal correction to Enthalpy=                  0.197942
 Thermal correction to Gibbs Free Energy=         0.145886
 Sum of electronic and zero-point Energies=           -687.153567
 Sum of electronic and thermal Energies=              -687.141379
 Sum of electronic and thermal Enthalpies=            -687.140434
 Sum of electronic and thermal Free Energies=         -687.192491

                     E (Thermal)             CV                S
                      KCal/Mol        Cal/Mol-Kelvin    Cal/Mol-Kelvin
 Total                  123.618             46.722            109.561
 Electronic               0.000              0.000              0.000
 Translational            0.889              2.981             41.694
 Rotational               0.889              2.981             32.394
 Vibrational            121.841             40.761             35.473
 Vibration     1          0.597              1.973              4.460
 Vibration     2          0.597              1.972              4.332
 Vibration     3          0.601              1.959              3.759
 Vibration     4          0.620              1.896              2.595
 Vibration     5          0.638              1.840              2.136
 Vibration     6          0.639              1.835              2.099
 Vibration     7          0.654              1.789              1.848
 Vibration     8          0.671              1.737              1.629
 Vibration     9          0.695              1.666              1.393
 Vibration    10          0.710              1.623              1.279
 Vibration    11          0.734              1.557              1.127
 Vibration    12          0.744              1.528              1.069
 Vibration    13          0.793              1.400              0.852
 Vibration    14          0.815              1.346              0.775
 Vibration    15          0.843              1.278              0.690
 Vibration    16          0.857              1.247              0.655
 Vibration    17          0.882              1.189              0.593
 Vibration    18          0.931              1.087              0.496
 Vibration    19          0.934              1.079              0.489
 Vibration    20          0.939              1.070              0.482

 Normal termination of Gaussian 09 at Sun Dec 15 01:08:13 2024.
