 Gaussian 09, Revision E.01,
 Gaussian 09:  ES64L-G09RevE.01 30-Nov-2015

 ----------------------------
 # opt freq b3lyp/6-31+g(d,p)
 ----------------------------

 ----------
 [No Title]
 ----------
 Symbolic Z-matrix:
 Charge =  1 Multiplicity = 1

 SCF Done:  E(RB3LYP) =  -688.313862281     A.U. after   16 cycles
 SCF Done:  E(RB3LYP) =  -688.358318191     A.U. after   13 cycles
 SCF Done:  E(RB3LYP) =  -688.365788696     A.U. after   13 cycles
 SCF Done:  E(RB3LYP) =  -688.366653827     A.U. after   12 cycles
 SCF Done:  E(RB3LYP) =  -688.367118060     A.U. after   12 cycles
 SCF Done:  E(RB3LYP) =  -688.367249599     A.U. after   11 cycles
 SCF Done:  E(RB3LYP) =  -688.367298748     A.U. after   11 cycles
 SCF Done:  E(RB3LYP) =  -688.367310180     A.U. after   11 cycles
 SCF Done:  E(RB3LYP) =  -688.367311132     A.U. after    9 cycles
 Optimization completed.
    -- Stationary point found.
 Normal termination of Gaussian 09 at Thu Jun 20 14:13:38 2024.

 ----------------------------------------------------------------------
 #N Geom=AllCheck Guess=TCheck SCRF=Check GenChk RB3LYP/6-31+G(d,p) Fre
 q
 ----------------------------------------------------------------------

 Structure from the checkpoint file:  "b3lypFAyanggd3.chk"
 ----------
 [No Title]
 ----------
 Charge =  1 Multiplicity = 1

                         Standard orientation:
 ---------------------------------------------------------------------
 Center     Atomic      Atomic             Coordinates (Angstroms)
 Number     Number       Type             X           Y           Z
 ---------------------------------------------------------------------
      1          6           0       -1.475005   -2.031908    0.023139
      2          6           0       -2.517662   -1.089491    0.011577
      3          6           0       -2.233780    0.308612   -0.005028
      4          6           0       -0.922617    0.734562   -0.011603
      5          6           0        0.147753   -0.213649   -0.002484
      6          6           0       -0.164764   -1.602369    0.017739
      7          8           0       -3.777813   -1.515470    0.017613
      8          6           0        1.475795    0.275802   -0.010503
      9          6           0        2.652102   -0.468103   -0.016530
     10          6           0        3.902144    0.136977    0.000157
     11          8           0        4.974920   -0.632423   -0.104979
     12          8           0        4.025978    1.452623    0.129206
     13          8           0       -3.351199    1.077229   -0.013017
     14          6           0       -3.219201    2.506419   -0.029220
     15          1           0       -1.731497   -3.085304    0.038050
     16          1           0       -0.688633    1.793020   -0.024617
     17          1           0        0.627988   -2.341364    0.029415
     18          1           0       -4.384453   -0.752849    0.008957
     19          1           0        1.586453    1.358469   -0.011521
     20          1           0        2.660997   -1.550437   -0.035456
     21          1           0        5.814328   -0.201633    0.123634
     22          1           0        4.895221    1.803141   -0.122828
     23          1           0       -4.236150    2.895250   -0.031519
     24          1           0       -2.692105    2.852546    0.865905
     25          1           0       -2.695828    2.832367   -0.934067
 ---------------------------------------------------------------------

 SCF Done:  E(RB3LYP) =  -688.367311132     A.U. after    1 cycles

 The electronic state is 1-A.
 Alpha  occ. eigenvalues --  -19.39266 -19.39101 -19.33454 -19.32816 -10.51767
 Alpha  occ. eigenvalues --  -10.41427 -10.39824 -10.38446 -10.36459 -10.35584
 Alpha  occ. eigenvalues --  -10.35521 -10.34824 -10.34717 -10.33548  -1.31420
 Alpha  occ. eigenvalues --   -1.23845  -1.23038  -1.19963  -1.01310  -0.97446
 Alpha  occ. eigenvalues --   -0.91706  -0.90410  -0.85545  -0.83335  -0.80025
 Alpha  occ. eigenvalues --   -0.78400  -0.75371  -0.72460  -0.70379  -0.67512
 Alpha  occ. eigenvalues --   -0.65503  -0.64226  -0.63923  -0.62548  -0.60468
 Alpha  occ. eigenvalues --   -0.59457  -0.58544  -0.57040  -0.55853  -0.55807
 Alpha  occ. eigenvalues --   -0.55291  -0.53585  -0.53302  -0.52445  -0.50927
 Alpha  occ. eigenvalues --   -0.48895  -0.47922  -0.47776  -0.43857  -0.38997
 Alpha  occ. eigenvalues --   -0.35681
 Alpha virt. eigenvalues --   -0.24933  -0.16339  -0.14415  -0.14287  -0.10734
 Alpha virt. eigenvalues --   -0.10155  -0.09631  -0.09486  -0.08100  -0.07603
 Alpha virt. eigenvalues --   -0.06536  -0.06287  -0.05601  -0.05016  -0.04863

 Mulliken charges:
               1
     1  C    0.124791
     2  C   -0.143537
     3  C    0.322921
     4  C   -0.315564
     5  C    0.186487
     6  C   -0.243566
     7  O   -0.455391
     8  C    0.174137
     9  C   -0.699813
    10  C    0.993841
    11  O   -0.408982
    12  O   -0.459194
    13  O   -0.449850
    14  C   -0.114187
    15  H    0.175989
    16  H    0.144352
    17  H    0.142580
    18  H    0.411811
    19  H    0.165255
    20  H    0.163011
    21  H    0.388664
    22  H    0.390997
    23  H    0.179863
    24  H    0.162728
    25  H    0.162658
 Sum of Mulliken charges =   1.00000

 Dipole moment (field-independent basis, Debye):
    X=              7.5458    Y=              3.4530    Z=             -0.0638  Tot=              8.2986
 Quadrupole moment (field-independent basis, Debye-Ang):
   XX=              8.0142   YY=            -62.1525   ZZ=            -82.9253
   XY=              2.2115   XZ=              0.3648   YZ=             -1.2626

  Exact polarizability: 317.405  19.863 134.797  -0.446  -0.082  69.552
 Approx polarizability: 583.283  70.636 216.634  -1.520   0.214 103.854

                      1                      2                      3
                      A                      A                      A
 Frequencies --     50.5355                61.2291                84.4365
 Red. masses --      6.3736                 5.7291                 5.1702
 Frc consts  --      0.0096                 0.0127                 0.0217
 IR Inten    --      0.4479                 1.7093                 0.8538

                      4                      5                      6
                      A                      A                      A
 Frequencies --     93.6607               146.4932               178.6716
 Red. masses --      3.3218                 5.2020                 2.2705
 Frc consts  --      0.0172                 0.0658                 0.0427
 IR Inten    --      5.6296                 2.1481                19.1940

                      7                      8                      9
                      A                      A                      A
 Frequencies --    191.4771               225.9731               227.5792
 Red. masses --      3.5652                 2.6800                 1.8247
 Frc consts  --      0.0770                 0.0806                 0.0557
 IR Inten    --      8.4210                29.0307                11.8228

                     10                     11                     12
                      A                      A                      A
 Frequencies --    268.6295               307.6010               325.1506
 Red. masses --      1.4152                 5.4802                 3.2625
 Frc consts  --      0.0602                 0.3055                 0.2032
 IR Inten    --    144.1921                 0.4785                19.4800

                     13                     14                     15
                      A                      A                      A
 Frequencies --    352.1334               371.6314               415.0916
 Red. masses --      4.6892                 2.1408                 1.1875
 Frc consts  --      0.3426                 0.1742                 0.1206
 IR Inten    --     11.6742                28.2978               254.0240

                     16                     17                     18
                      A                      A                      A
 Frequencies --    459.6328               495.3355               525.8631
 Red. masses --      3.2088                 5.8331                 5.2938
 Frc consts  --      0.3994                 0.8432                 0.8625
 IR Inten    --      0.3685                10.6621                12.4312

                     19                     20                     21
                      A                      A                      A
 Frequencies --    562.2933               578.5253               584.4290
 Red. masses --      4.5740                 2.7295                 3.3830
 Frc consts  --      0.8521                 0.5383                 0.6808
 IR Inten    --     36.4899                34.9222                20.6907

                     22                     23                     24
                      A                      A                      A
 Frequencies --    606.0826               630.7775               685.5813
 Red. masses --      1.2858                 4.7222                 5.2330
 Frc consts  --      0.2783                 1.1070                 1.4492
 IR Inten    --     80.1633                10.8102                 4.6808

                     25                     26                     27
                      A                      A                      A
 Frequencies --    720.4064               777.8194               830.1207
 Red. masses --      5.1751                 5.6869                 5.3409
 Frc consts  --      1.5824                 2.0271                 2.1685
 IR Inten    --      0.6346                17.5860                 1.4806

                     28                     29                     30
                      A                      A                      A
 Frequencies --    833.9761               865.4441               876.7577
 Red. masses --      1.5394                 1.5138                 1.4202
 Frc consts  --      0.6308                 0.6680                 0.6432
 IR Inten    --      8.1939                62.1187                 3.5963

                     31                     32                     33
                      A                      A                      A
 Frequencies --    952.4635               972.2602               984.7987
 Red. masses --      3.7185                 1.3036                 5.5166
 Frc consts  --      1.9875                 0.7260                 3.1522
 IR Inten    --     62.4459                 1.4071               134.8321

                     34                     35                     36
                      A                      A                      A
 Frequencies --   1004.8411              1040.0428              1140.6722
 Red. masses --      1.3032                 4.3502                 1.1556
 Frc consts  --      0.7753                 2.7725                 0.8859
 IR Inten    --     24.4064                62.8002               187.6124

                     37                     38                     39
                      A                      A                      A
 Frequencies --   1148.5196              1163.2066              1171.4336
 Red. masses --      1.6179                 1.5084                 1.2630
 Frc consts  --      1.2574                 1.2025                 1.0212
 IR Inten    --    133.0314              1172.4158                 0.9133

                     40                     41                     42
                      A                      A                      A
 Frequencies --   1197.0341              1223.3116              1233.7088
 Red. masses --      1.3478                 1.2995                 1.5847
 Frc consts  --      1.1378                 1.1457                 1.4211
 IR Inten    --     45.7776               166.4477                66.7892

                     43                     44                     45
                      A                      A                      A
 Frequencies --   1272.5055              1304.5150              1332.9756
 Red. masses --      2.1455                 1.7455                 2.5107
 Frc consts  --      2.0469                 1.7501                 2.6284
 IR Inten    --     34.0920                89.5429                74.0434

                     46                     47                     48
                      A                      A                      A
 Frequencies --   1350.9918              1366.8348              1427.8948
 Red. masses --      1.4897                 3.4778                 3.4299
 Frc consts  --      1.6020                 3.8281                 4.1203
 IR Inten    --    387.6251               286.9834               272.8396

                     49                     50                     51
                      A                      A                      A
 Frequencies --   1464.4866              1477.3235              1492.6107
 Red. masses --      4.5609                 1.6927                 1.9913
 Frc consts  --      5.7633                 2.1766                 2.6139
 IR Inten    --    316.6342                17.4623                23.5267

                     52                     53                     54
                      A                      A                      A
 Frequencies --   1500.1000              1504.9305              1559.2105
 Red. masses --      1.0452                 1.1415                 3.6725
 Frc consts  --      1.3857                 1.5233                 5.2604
 IR Inten    --     13.7758                33.6283               716.5495

                     55                     56                     57
                      A                      A                      A
 Frequencies --   1600.5414              1610.2872              1628.2287
 Red. masses --      4.7400                 4.3337                 4.4813
 Frc consts  --      7.1542                 6.6210                 6.9997
 IR Inten    --    491.3417                18.5224              1290.6782

                     58                     59                     60
                      A                      A                      A
 Frequencies --   1675.0717              3043.1012              3120.3305
 Red. masses --      5.4845                 1.0329                 1.1084
 Frc consts  --      9.0668                 5.6355                 6.3582
 IR Inten    --    394.3567                25.7037                18.6886

                     61                     62                     63
                      A                      A                      A
 Frequencies --   3181.6146              3184.1316              3219.0419
 Red. masses --      1.0898                 1.1025                 1.0889
 Frc consts  --      6.4998                 6.5860                 6.6479
 IR Inten    --      0.4025                 4.7265                 1.0865

                     64                     65                     66
                      A                      A                      A
 Frequencies --   3220.1983              3231.6986              3243.4587
 Red. masses --      1.0907                 1.0961                 1.0904
 Frc consts  --      6.6640                 6.7446                 6.7583
 IR Inten    --      2.7338                 0.5343                 1.3250

                     67                     68                     69
                      A                      A                      A
 Frequencies --   3714.0537              3773.0692              3782.3552
 Red. masses --      1.0652                 1.0680                 1.0662
 Frc consts  --      8.6572                 8.9579                 8.9866
 IR Inten    --    355.8133                60.9789               637.5698

 - Thermochemistry -
 -------------------
 Temperature   298.150 Kelvin.  Pressure   1.00000 Atm.
 Atom     1 has atomic number  6 and mass  12.00000

 Molecular mass:   195.06573 amu.
 Principal axes and moments of inertia in atomic units:
                           1         2         3
     Eigenvalues --  1180.037796355.429427520.11880
           X            0.99994  -0.01092   0.00016
           Y            0.01092   0.99994  -0.00217
           Z           -0.00014   0.00218   1.00000
 This molecule is an asymmetric top.
 Rotational symmetry number  1.
 Warning -- assumption of classical behavior for rotation
           may cause significant error
 Rotational temperatures (Kelvin)      0.07340     0.01363     0.01152
 Rotational constants (GHZ):           1.52939     0.28397     0.23999
 Zero-point vibrational energy     519461.6 (Joules/Mol)
                                  124.15429 (Kcal/Mol)
 Warning -- explicit consideration of  22 degrees of freedom as
           vibrations may cause significant error
 Vibrational temperatures:     72.71    88.09   121.49   134.76   210.77
          (Kelvin)            257.07   275.49   325.12   327.44   386.50
                              442.57   467.82   506.64   534.69   597.22
                              661.31   712.68   756.60   809.01   832.37
                              840.86   872.02   907.55   986.40  1036.50
                             1119.11  1194.36  1199.90  1245.18  1261.46
                             1370.38  1398.86  1416.90  1445.74  1496.39
                             1641.17  1652.46  1673.59  1685.43  1722.26
                             1760.07  1775.03  1830.85  1876.90  1917.85
                             1943.77  1966.57  2054.42  2107.07  2125.54
                             2147.53  2158.31  2165.26  2243.35  2302.82
                             2316.84  2342.66  2410.05  4378.34  4489.45
                             4577.63  4581.25  4631.48  4633.14  4649.69
                             4666.61  5343.69  5428.60  5441.96

 Zero-point correction=                           0.197852 (Hartree/Particle)
 Thermal correction to Energy=                    0.211452
 Thermal correction to Enthalpy=                  0.212396
 Thermal correction to Gibbs Free Energy=         0.157240
 Sum of electronic and zero-point Energies=           -688.169459
 Sum of electronic and thermal Energies=              -688.155859
 Sum of electronic and thermal Enthalpies=            -688.154915
 Sum of electronic and thermal Free Energies=         -688.210071

                     E (Thermal)             CV                S
                      KCal/Mol        Cal/Mol-Kelvin    Cal/Mol-Kelvin
 Total                  132.688             51.146            116.085
 Electronic               0.000              0.000              0.000
 Translational            0.889              2.981             41.710
 Rotational               0.889              2.981             32.400
 Vibrational            130.910             45.185             41.975
 Vibration     1          0.595              1.977              4.796
 Vibration     2          0.597              1.973              4.417
 Vibration     3          0.601              1.960              3.785
 Vibration     4          0.603              1.954              3.582
 Vibration     5          0.617              1.906              2.717
 Vibration     6          0.629              1.869              2.342
 Vibration     7          0.634              1.852              2.213
 Vibration     8          0.650              1.801              1.911
 Vibration     9          0.651              1.799              1.898
 Vibration    10          0.673              1.731              1.605
 Vibration    11          0.697              1.659              1.375
 Vibration    12          0.709              1.625              1.284
 Vibration    13          0.729              1.571              1.157
 Vibration    14          0.743              1.530              1.073
 Vibration    15          0.778              1.437              0.909
 Vibration    16          0.818              1.340              0.767
 Vibration    17          0.851              1.260              0.670
 Vibration    18          0.881              1.193              0.597
 Vibration    19          0.918              1.113              0.519
 Vibration    20          0.935              1.078              0.488
 Vibration    21          0.941              1.065              0.477
 Vibration    22          0.965              1.019              0.439

 Normal termination of Gaussian 09 at Thu Jun 20 14:17:30 2024.
