 Gaussian 09, Revision E.01,
 Gaussian 09:  ES64L-G09RevE.01 30-Nov-2015

 ----------------------------
 # opt freq b3lyp/6-31+g(d,p)
 ----------------------------

 ----------
 [No Title]
 ----------
 Symbolic Z-matrix:
 Charge =  0 Multiplicity = 1

 SCF Done:  E(RB3LYP) =  -687.977140427     A.U. after   15 cycles
 SCF Done:  E(RB3LYP) =  -688.015873178     A.U. after   14 cycles
 SCF Done:  E(RB3LYP) =  -688.020778305     A.U. after   13 cycles
 SCF Done:  E(RB3LYP) =  -688.020988511     A.U. after   12 cycles
 SCF Done:  E(RB3LYP) =  -688.021019956     A.U. after   11 cycles
 SCF Done:  E(RB3LYP) =  -688.021021669     A.U. after   10 cycles
 Optimization completed.
    -- Stationary point found.
 Normal termination of Gaussian 09 at Thu Jun 20 11:34:25 2024.

 ----------------------------------------------------------------------
 #N Geom=AllCheck Guess=TCheck SCRF=Check GenChk RB3LYP/6-31+G(d,p) Fre
 q
 ----------------------------------------------------------------------

 Structure from the checkpoint file:  "b3lypFAgd3.chk"
 ----------
 [No Title]
 ----------
 Charge =  0 Multiplicity = 1

                         Standard orientation:
 ---------------------------------------------------------------------
 Center     Atomic      Atomic             Coordinates (Angstroms)
 Number     Number       Type             X           Y           Z
 ---------------------------------------------------------------------
      1          6           0        1.490026   -2.020146   -0.000302
      2          6           0        2.510307   -1.069476   -0.000343
      3          6           0        2.185666    0.302825   -0.000195
      4          6           0        0.855102    0.702348   -0.000012
      5          6           0       -0.186487   -0.253783    0.000023
      6          6           0        0.157461   -1.617763   -0.000118
      7          8           0        3.808804   -1.469631   -0.000519
      8          6           0       -1.564401    0.230082    0.000213
      9          6           0       -2.696082   -0.507948    0.000116
     10          6           0       -4.045328    0.066523    0.000330
     11          8           0       -5.072485   -0.592045    0.000222
     12          8           0       -4.077956    1.432277    0.000669
     13          8           0        3.280789    1.131895   -0.000257
     14          6           0        3.069111    2.541382    0.000042
     15          1           0        1.760664   -3.070838   -0.000406
     16          1           0        0.599882    1.756325    0.000101
     17          1           0       -0.618557   -2.375362   -0.000074
     18          1           0        4.371384   -0.678867   -0.000509
     19          1           0       -1.678800    1.312110    0.000452
     20          1           0       -2.689887   -1.592350   -0.000137
     21          1           0       -5.016995    1.679278    0.000771
     22          1           0        4.061509    2.992699    0.000019
     23          1           0        2.522569    2.856562   -0.896638
     24          1           0        2.522766    2.856209    0.896966
 ---------------------------------------------------------------------

 SCF Done:  E(RB3LYP) =  -688.021021669     A.U. after    2 cycles

 The electronic state is 1-A.
 Alpha  occ. eigenvalues --  -19.21624 -19.20340 -19.20247 -19.14438 -10.32483
 Alpha  occ. eigenvalues --  -10.27300 -10.27228 -10.26733 -10.22469 -10.21947
 Alpha  occ. eigenvalues --  -10.21733 -10.21089 -10.20894 -10.20693  -1.10703
 Alpha  occ. eigenvalues --   -1.10404  -1.07469  -1.01552  -0.87892  -0.81782
 Alpha  occ. eigenvalues --   -0.77863  -0.76465  -0.72389  -0.67415  -0.63354
 Alpha  occ. eigenvalues --   -0.61672  -0.58969  -0.57587  -0.54061  -0.51529
 Alpha  occ. eigenvalues --   -0.49892  -0.49676  -0.48089  -0.47116  -0.46617
 Alpha  occ. eigenvalues --   -0.44844  -0.44642  -0.43363  -0.42614  -0.40889
 Alpha  occ. eigenvalues --   -0.39881  -0.38762  -0.37487  -0.36937  -0.36231
 Alpha  occ. eigenvalues --   -0.35801  -0.32543  -0.29674  -0.28209  -0.26120
 Alpha  occ. eigenvalues --   -0.22381
 Alpha virt. eigenvalues --   -0.07606  -0.02213  -0.00888  -0.00564   0.00528
 Alpha virt. eigenvalues --    0.00928   0.01456   0.02529   0.03644   0.03883
 Alpha virt. eigenvalues --    0.04824   0.05263   0.05979   0.06102   0.06723

 Mulliken charges:
               1
     1  C    0.211665
     2  C   -0.213054
     3  C    0.326054
     4  C   -0.344277
     5  C    0.164295
     6  C   -0.355330
     7  O   -0.525063
     8  C    0.054839
     9  C   -0.327971
    10  C    0.692880
    11  O   -0.490901
    12  O   -0.511120
    13  O   -0.456362
    14  C   -0.121878
    15  H    0.142936
    16  H    0.121674
    17  H    0.123240
    18  H    0.391235
    19  H    0.143995
    20  H    0.131776
    21  H    0.383124
    22  H    0.153943
    23  H    0.152151
    24  H    0.152151
 Sum of Mulliken charges =  -0.00000

 Dipole moment (field-independent basis, Debye):
    X=              3.8464    Y=              3.7377    Z=              0.0004  Tot=              5.3633
 Quadrupole moment (field-independent basis, Debye-Ang):
   XX=            -93.3106   YY=            -72.5901   ZZ=            -85.1409
   XY=              0.6256   XZ=             -0.0003   YZ=              0.0012

  Exact polarizability: 246.252   1.856 140.142  -0.013   0.008  74.373
 Approx polarizability: 368.789   6.847 219.230  -0.019   0.013 110.397

                      1                      2                      3
                      A                      A                      A
 Frequencies --     31.7737                65.3847                79.5656
 Red. masses --      6.7656                 5.4595                 3.5533
 Frc consts  --      0.0040                 0.0138                 0.0133
 IR Inten    --      0.9386                 0.4717                 3.9758

                      4                      5                      6
                      A                      A                      A
 Frequencies --     82.2658               129.9194               173.1548
 Red. masses --      5.8831                 3.5538                 2.9894
 Frc consts  --      0.0235                 0.0353                 0.0528
 IR Inten    --      0.5690                 0.0680                 0.4285

                      7                      8                      9
                      A                      A                      A
 Frequencies --    196.2752               220.7595               223.3933
 Red. masses --      3.9204                 1.4282                 7.4391
 Frc consts  --      0.0890                 0.0410                 0.2187
 IR Inten    --      3.7010                 0.2565                 1.0705

                     10                     11                     12
                      A                      A                      A
 Frequencies --    285.3090               304.6468               355.7252
 Red. masses --      2.5335                 6.4040                 4.8024
 Frc consts  --      0.1215                 0.3502                 0.3580
 IR Inten    --      0.0007                 3.3860                 4.4681

                     13                     14                     15
                      A                      A                      A
 Frequencies --    372.1747               458.0802               486.1242
 Red. masses --      4.0764                 2.8378                 1.1271
 Frc consts  --      0.3327                 0.3508                 0.1569
 IR Inten    --      0.3149                11.1121                99.3213

                     16                     17                     18
                      A                      A                      A
 Frequencies --    486.5239               527.8171               554.2976
 Red. masses --      5.6282                 6.5291                 1.2174
 Frc consts  --      0.7849                 1.0717                 0.2204
 IR Inten    --     16.1610                 1.4800                71.7220

                     19                     20                     21
                      A                      A                      A
 Frequencies --    572.9426               576.5099               596.1982
 Red. masses --      4.1011                 5.9847                 2.9876
 Frc consts  --      0.7932                 1.1719                 0.6257
 IR Inten    --      6.2658                57.2939                43.0603

                     22                     23                     24
                      A                      A                      A
 Frequencies --    641.7694               705.0360               741.7232
 Red. masses --      4.6231                 4.7834                 4.3255
 Frc consts  --      1.1219                 1.4009                 1.4021
 IR Inten    --     20.7780                 0.9302                 7.0745

                     25                     26                     27
                      A                      A                      A
 Frequencies --    774.1035               819.9444               832.0248
 Red. masses --      5.6244                 5.3262                 1.4634
 Frc consts  --      1.9858                 2.1098                 0.5969
 IR Inten    --     14.2756                18.0640                23.2831

                     28                     29                     30
                      A                      A                      A
 Frequencies --    861.6089               895.6091               917.2199
 Red. masses --      1.5243                 1.9720                 4.5931
 Frc consts  --      0.6667                 0.9319                 2.2767
 IR Inten    --     45.1358                 4.0982                27.1724

                     31                     32                     33
                      A                      A                      A
 Frequencies --    953.6952               953.7141              1018.4878
 Red. masses --      3.7984                 1.3106                 1.1508
 Frc consts  --      2.0355                 0.7024                 0.7033
 IR Inten    --      7.8077                 1.9182                33.6773

                     34                     35                     36
                      A                      A                      A
 Frequencies --   1058.9008              1146.9415              1173.5022
 Red. masses --      4.1850                 1.6480                 1.2669
 Frc consts  --      2.7647                 1.2773                 1.0279
 IR Inten    --     48.8786                91.2073                 0.8071

                     37                     38                     39
                      A                      A                      A
 Frequencies --   1177.1994              1191.4321              1214.7855
 Red. masses --      1.8855                 1.5344                 1.6688
 Frc consts  --      1.5395                 1.2833                 1.4510
 IR Inten    --    472.1364                26.6076                55.8069

                     40                     41                     42
                      A                      A                      A
 Frequencies --   1227.2669              1262.4981              1297.1277
 Red. masses --      1.3596                 2.3373                 1.8166
 Frc consts  --      1.2066                 2.1949                 1.8008
 IR Inten    --    105.1300               136.2522                37.1872

                     43                     44                     45
                      A                      A                      A
 Frequencies --   1322.0280              1324.0988              1355.0328
 Red. masses --      3.2676                 1.7110                 1.6371
 Frc consts  --      3.3648                 1.7675                 1.7711
 IR Inten    --    422.4398                24.9601                12.9596

                     46                     47                     48
                      A                      A                      A
 Frequencies --   1372.3178              1414.4310              1462.2313
 Red. masses --      2.4837                 2.7050                 2.8263
 Frc consts  --      2.7558                 3.1884                 3.5604
 IR Inten    --    125.4511                39.9390                20.0186

                     49                     50                     51
                      A                      A                      A
 Frequencies --   1487.9843              1496.6109              1509.2199
 Red. masses --      1.3623                 1.0455                 1.0646
 Frc consts  --      1.7772                 1.3798                 1.4287
 IR Inten    --     15.2195                 9.5638                47.0556

                     52                     53                     54
                      A                      A                      A
 Frequencies --   1555.7719              1633.1050              1648.4367
 Red. masses --      3.3466                 5.5875                 6.1787
 Frc consts  --      4.7725                 8.7801                 9.8922
 IR Inten    --    262.6315               201.4607                79.4538

                     55                     56                     57
                      A                      A                      A
 Frequencies --   1681.4053              1775.7402              3027.0584
 Red. masses --      5.7229                 8.6964                 1.0334
 Frc consts  --      9.5325                16.1566                 5.5791
 IR Inten    --     49.5533               736.6848                46.7770

                     58                     59                     60
                      A                      A                      A
 Frequencies --   3094.9573              3159.6945              3177.4090
 Red. masses --      1.1070                 1.1011                 1.0896
 Frc consts  --      6.2476                 6.4768                 6.4812
 IR Inten    --     30.6810                18.4466                 2.0571

                     61                     62                     63
                      A                      A                      A
 Frequencies --   3203.8657              3210.3819              3216.1143
 Red. masses --      1.0879                 1.0898                 1.0925
 Frc consts  --      6.5797                 6.6177                 6.6578
 IR Inten    --      5.0533                 5.3554                 0.0326

                     64                     65                     66
                      A                      A                      A
 Frequencies --   3221.7041              3766.2187              3773.9074
 Red. masses --      1.0915                 1.0652                 1.0647
 Frc consts  --      6.6750                 8.9021                 8.9340
 IR Inten    --      7.2606               162.9366               101.8397

 - Thermochemistry -
 -------------------
 Temperature   298.150 Kelvin.  Pressure   1.00000 Atm.
 Atom     1 has atomic number  6 and mass  12.00000

 Molecular mass:   194.05791 amu.
 Principal axes and moments of inertia in atomic units:
                           1         2         3
     Eigenvalues --  1176.019086308.283917472.72491
           X            0.99995   0.01002   0.00009
           Y           -0.01002   0.99995  -0.00012
           Z           -0.00009   0.00012   1.00000
 This molecule is an asymmetric top.
 Rotational symmetry number  1.
 Warning -- assumption of classical behavior for rotation
           may cause significant error
 Rotational temperatures (Kelvin)      0.07365     0.01373     0.01159
 Rotational constants (GHZ):           1.53462     0.28609     0.24151
 Zero-point vibrational energy     487676.6 (Joules/Mol)
                                  116.55750 (Kcal/Mol)
 Warning -- explicit consideration of  21 degrees of freedom as
           vibrations may cause significant error
 Vibrational temperatures:     45.72    94.07   114.48   118.36   186.92
          (Kelvin)            249.13   282.40   317.62   321.41   410.50
                              438.32   511.81   535.48   659.07   699.42
                              700.00   759.41   797.51   824.34   829.47
                              857.80   923.36  1014.39  1067.17  1113.76
                             1179.72  1197.10  1239.66  1288.58  1319.67
                             1372.15  1372.18  1465.37  1523.52  1650.19
                             1688.41  1693.73  1714.20  1747.80  1765.76
                             1816.45  1866.28  1902.10  1905.08  1949.59
                             1974.46  2035.05  2103.82  2140.87  2153.29
                             2171.43  2238.41  2349.67  2371.73  2419.16
                             2554.89  4355.26  4452.95  4546.09  4571.58
                             4609.64  4619.02  4627.27  4635.31  5418.74
                             5429.80

 Zero-point correction=                           0.185746 (Hartree/Particle)
 Thermal correction to Energy=                    0.198979
 Thermal correction to Enthalpy=                  0.199923
 Thermal correction to Gibbs Free Energy=         0.144839
 Sum of electronic and zero-point Energies=           -687.835275
 Sum of electronic and thermal Energies=              -687.822043
 Sum of electronic and thermal Enthalpies=            -687.821098
 Sum of electronic and thermal Free Energies=         -687.876182

                     E (Thermal)             CV                S
                      KCal/Mol        Cal/Mol-Kelvin    Cal/Mol-Kelvin
 Total                  124.861             49.236            115.934
 Electronic               0.000              0.000              0.000
 Translational            0.889              2.981             41.694
 Rotational               0.889              2.981             32.383
 Vibrational            123.084             43.274             41.857
 Vibration     1          0.594              1.983              5.715
 Vibration     2          0.597              1.971              4.288
 Vibration     3          0.600              1.963              3.902
 Vibration     4          0.600              1.961              3.836
 Vibration     5          0.612              1.923              2.947
 Vibration     6          0.627              1.876              2.401
 Vibration     7          0.636              1.845              2.168
 Vibration     8          0.647              1.809              1.953
 Vibration     9          0.649              1.805              1.931
 Vibration    10          0.683              1.701              1.502
 Vibration    11          0.696              1.665              1.391
 Vibration    12          0.731              1.564              1.141
 Vibration    13          0.744              1.529              1.071
 Vibration    14          0.816              1.343              0.772
 Vibration    15          0.842              1.281              0.694
 Vibration    16          0.843              1.280              0.693
 Vibration    17          0.883              1.188              0.592
 Vibration    18          0.910              1.130              0.535
 Vibration    19          0.929              1.090              0.499
 Vibration    20          0.933              1.082              0.492
 Vibration    21          0.954              1.040              0.456

 Optimization completed.
    -- Stationary point found.
 Normal termination of Gaussian 09 at Thu Jun 20 11:37:48 2024.
