 Gaussian 09, Revision E.01,
 Gaussian 09:  ES64L-G09RevE.01 30-Nov-2015

 -----------------------------
 # opt freq b3pw91/6-31+g(d,p)
 -----------------------------

 ----------
 [No Title]
 ----------
 Symbolic Z-matrix:
 Charge =  1 Multiplicity = 1

 SCF Done:  E(RB3PW91) =  -688.098525784     A.U. after   15 cycles
 SCF Done:  E(RB3PW91) =  -688.098767310     A.U. after   12 cycles
 SCF Done:  E(RB3PW91) =  -688.098786772     A.U. after   11 cycles
 SCF Done:  E(RB3PW91) =  -688.098788404     A.U. after   10 cycles
 SCF Done:  E(RB3PW91) =  -688.098789062     A.U. after    9 cycles
 SCF Done:  E(RB3PW91) =  -688.098789753     A.U. after   10 cycles
 SCF Done:  E(RB3PW91) =  -688.098790658     A.U. after   10 cycles
 SCF Done:  E(RB3PW91) =  -688.098791124     A.U. after    9 cycles
 SCF Done:  E(RB3PW91) =  -688.098791252     A.U. after    9 cycles
 SCF Done:  E(RB3PW91) =  -688.098791282     A.U. after    9 cycles
 Optimization completed.
    -- Stationary point found.
 Normal termination of Gaussian 09 at Sun Dec 15 13:00:08 2024.

 ----------------------------------------------------------------------
 #N Geom=AllCheck Guess=TCheck SCRF=Check GenChk RB3PW91/6-31+G(d,p) Fr
 eq
 ----------------------------------------------------------------------

 Structure from the checkpoint file:  "B3PW91FAyang.chk"
 ----------
 [No Title]
 ----------
 Charge =  1 Multiplicity = 1

                         Standard orientation:
 ---------------------------------------------------------------------
 Center     Atomic      Atomic             Coordinates (Angstroms)
 Number     Number       Type             X           Y           Z
 ---------------------------------------------------------------------
      1          6           0        1.475358   -2.027968   -0.022258
      2          6           0        2.515049   -1.085648   -0.011255
      3          6           0        2.229075    0.309918    0.004686
      4          6           0        0.919360    0.733574    0.010930
      5          6           0       -0.146346   -0.214926    0.002225
      6          6           0        0.166639   -1.600235   -0.017010
      7          8           0        3.772139   -1.504336   -0.017181
      8          6           0       -1.473460    0.272532    0.009566
      9          6           0       -2.646260   -0.470681    0.016512
     10          6           0       -3.894816    0.136847   -0.000158
     11          8           0       -4.962974   -0.630379    0.100200
     12          8           0       -4.012462    1.447929   -0.124040
     13          8           0        3.341929    1.075347    0.012116
     14          6           0        3.203441    2.495921    0.029208
     15          1           0        1.733260   -3.081436   -0.036596
     16          1           0        0.683984    1.792598    0.023333
     17          1           0       -0.625492   -2.340712   -0.028268
     18          1           0        4.369739   -0.736386   -0.008782
     19          1           0       -1.584954    1.355871    0.009620
     20          1           0       -2.657516   -1.553415    0.036175
     21          1           0       -5.802893   -0.194081   -0.106011
     22          1           0       -4.885369    1.798081    0.106668
     23          1           0        4.217623    2.892555    0.032307
     24          1           0        2.675720    2.841952   -0.865929
     25          1           0        2.678603    2.820471    0.934048
 ---------------------------------------------------------------------

 SCF Done:  E(RB3PW91) =  -688.098791282     A.U. after    1 cycles

 The electronic state is 1-A.
 Alpha  occ. eigenvalues --  -19.38365 -19.38199 -19.32417 -19.32063 -10.50391
 Alpha  occ. eigenvalues --  -10.39977 -10.38415 -10.37098 -10.34923 -10.34209
 Alpha  occ. eigenvalues --  -10.34199 -10.33456 -10.33350 -10.32147  -1.32253
 Alpha  occ. eigenvalues --   -1.24543  -1.23780  -1.20697  -1.01750  -0.97870
 Alpha  occ. eigenvalues --   -0.92083  -0.90755  -0.85940  -0.83651  -0.80566
 Alpha  occ. eigenvalues --   -0.78684  -0.75536  -0.72649  -0.70684  -0.67829
 Alpha  occ. eigenvalues --   -0.65700  -0.64606  -0.64212  -0.62725  -0.60794
 Alpha  occ. eigenvalues --   -0.59450  -0.58522  -0.57079  -0.56033  -0.55960
 Alpha  occ. eigenvalues --   -0.55591  -0.53656  -0.53369  -0.52428  -0.51170
 Alpha  occ. eigenvalues --   -0.48754  -0.47956  -0.47860  -0.44031  -0.39130
 Alpha  occ. eigenvalues --   -0.35733
 Alpha virt. eigenvalues --   -0.24927  -0.15174  -0.14293  -0.14186  -0.09595
 Alpha virt. eigenvalues --   -0.09005  -0.08538  -0.08402  -0.07735  -0.06514
 Alpha virt. eigenvalues --   -0.05388  -0.05158  -0.04408  -0.03914  -0.03725

 Mulliken charges:
               1
     1  C    0.171289
     2  C   -0.329517
     3  C    0.104953
     4  C   -0.183911
     5  C    0.286455
     6  C   -0.254502
     7  O   -0.430843
     8  C    0.070846
     9  C   -0.645636
    10  C    0.945508
    11  O   -0.390245
    12  O   -0.440476
    13  O   -0.399829
    14  C   -0.165290
    15  H    0.201419
    16  H    0.169904
    17  H    0.167867
    18  H    0.414460
    19  H    0.185779
    20  H    0.188230
    21  H    0.392068
    22  H    0.395256
    23  H    0.195382
    24  H    0.175469
    25  H    0.175365
 Sum of Mulliken charges =   1.00000

 Dipole moment (field-independent basis, Debye):
    X=             -7.7160    Y=              3.4843    Z=              0.0659  Tot=              8.4665
 Quadrupole moment (field-independent basis, Debye-Ang):
   XX=             10.0104   YY=            -61.0805   ZZ=            -82.4483
   XY=             -2.4654   XZ=              0.3103   YZ=              1.1492

  Exact polarizability: 313.603 -19.382 133.050  -0.448   0.046  68.110
 Approx polarizability: 576.943 -69.073 213.597  -1.488  -0.254 100.125

                      1                      2                      3
                      A                      A                      A
 Frequencies --     48.9553                60.7122                83.5249
 Red. masses --      6.5113                 5.8059                 5.1640
 Frc consts  --      0.0092                 0.0126                 0.0212
 IR Inten    --      0.5390                 2.0568                 0.9504

                      4                      5                      6
                      A                      A                      A
 Frequencies --     94.8807               145.2948               175.9429
 Red. masses --      3.2826                 5.1424                 2.3229
 Frc consts  --      0.0174                 0.0640                 0.0424
 IR Inten    --      5.4840                 3.1691                25.3899

                      7                      8                      9
                      A                      A                      A
 Frequencies --    190.7506               223.4114               226.2934
 Red. masses --      3.5184                 1.5998                 2.9223
 Frc consts  --      0.0754                 0.0470                 0.0882
 IR Inten    --      7.8474                44.7837                 3.2449

                     10                     11                     12
                      A                      A                      A
 Frequencies --    262.2370               307.0144               325.6897
 Red. masses --      1.4493                 5.6139                 3.2833
 Frc consts  --      0.0587                 0.3118                 0.2052
 IR Inten    --    103.1857                 0.0843                14.2478

                     13                     14                     15
                      A                      A                      A
 Frequencies --    350.9825               370.7608               423.1506
 Red. masses --      4.6904                 2.1484                 1.1858
 Frc consts  --      0.3404                 0.1740                 0.1251
 IR Inten    --     11.2087                23.2066               257.3973

                     16                     17                     18
                      A                      A                      A
 Frequencies --    459.1103               495.2389               525.9922
 Red. masses --      3.2022                 5.7979                 5.3088
 Frc consts  --      0.3977                 0.8378                 0.8654
 IR Inten    --      0.3747                11.1975                12.8244

                     19                     20                     21
                      A                      A                      A
 Frequencies --    563.4960               579.2553               585.1866
 Red. masses --      4.6789                 2.8516                 3.5605
 Frc consts  --      0.8753                 0.5637                 0.7184
 IR Inten    --     40.6895                32.0316                16.4579

                     22                     23                     24
                      A                      A                      A
 Frequencies --    611.4854               631.4893               692.0460
 Red. masses --      1.2366                 4.5866                 5.2270
 Frc consts  --      0.2724                 1.0776                 1.4749
 IR Inten    --     86.4642                 6.7511                 4.1187

                     25                     26                     27
                      A                      A                      A
 Frequencies --    724.3639               781.6000               831.3817
 Red. masses --      5.1501                 5.6240                 1.5561
 Frc consts  --      1.5921                 2.0243                 0.6337
 IR Inten    --      0.5371                15.9001                 7.3736

                     28                     29                     30
                      A                      A                      A
 Frequencies --    832.6332               861.2660               872.2939
 Red. masses --      5.2655                 1.5279                 1.4207
 Frc consts  --      2.1508                 0.6678                 0.6369
 IR Inten    --      1.7230                66.1123                 3.8235

                     31                     32                     33
                      A                      A                      A
 Frequencies --    960.2139               969.9750               995.2983
 Red. masses --      3.4635                 1.3051                 4.6562
 Frc consts  --      1.8815                 0.7235                 2.7176
 IR Inten    --     56.1905                 1.7043               112.8826

                     34                     35                     36
                      A                      A                      A
 Frequencies --   1001.3826              1054.6017              1139.1715
 Red. masses --      1.3412                 4.1470                 1.1374
 Frc consts  --      0.7924                 2.7175                 0.8696
 IR Inten    --     24.1201                54.2214               179.1733

                     37                     38                     39
                      A                      A                      A
 Frequencies --   1151.9925              1167.8720              1171.0751
 Red. masses --      1.5489                 1.5025                 1.2686
 Frc consts  --      1.2111                 1.2074                 1.0250
 IR Inten    --    109.6556              1189.1050                 0.7153

                     40                     41                     42
                      A                      A                      A
 Frequencies --   1197.6703              1223.0151              1233.1507
 Red. masses --      1.3647                 1.2785                 1.5075
 Frc consts  --      1.1534                 1.1267                 1.3506
 IR Inten    --     30.3460               125.8425                67.5345

                     43                     44                     45
                      A                      A                      A
 Frequencies --   1278.1715              1307.5610              1338.4370
 Red. masses --      1.8932                 1.8976                 2.1861
 Frc consts  --      1.8223                 1.9115                 2.3073
 IR Inten    --     26.2969                91.9091                87.7674

                     46                     47                     48
                      A                      A                      A
 Frequencies --   1347.9672              1380.9717              1439.5581
 Red. masses --      1.5233                 3.9249                 3.4172
 Frc consts  --      1.6308                 4.4101                 4.1723
 IR Inten    --    247.4046               386.1285               217.3126

                     49                     50                     51
                      A                      A                      A
 Frequencies --   1477.5735              1485.1426              1496.4633
 Red. masses --      1.4041                 3.4939                 1.0434
 Frc consts  --      1.8062                 4.5404                 1.3767
 IR Inten    --     18.3924               289.8943                14.9796

                     52                     53                     54
                      A                      A                      A
 Frequencies --   1499.1083              1510.2661              1572.7801
 Red. masses --      1.2637                 3.0550                 4.1755
 Frc consts  --      1.6733                 4.1055                 6.0855
 IR Inten    --     99.0336                22.4369               847.2026

                     55                     56                     57
                      A                      A                      A
 Frequencies --   1612.5630              1622.6512              1642.9033
 Red. masses --      5.0210                 4.6323                 4.8723
 Frc consts  --      7.6926                 7.1861                 7.7483
 IR Inten    --    511.4062                19.8798              1321.5195

                     58                     59                     60
                      A                      A                      A
 Frequencies --   1689.2646              3049.5960              3133.4882
 Red. masses --      5.8419                 1.0330                 1.1082
 Frc consts  --      9.8219                 5.6605                 6.4108
 IR Inten    --    365.3097                25.7470                17.0517

                     61                     62                     63
                      A                      A                      A
 Frequencies --   3188.8940              3197.4130              3227.0714
 Red. masses --      1.0901                 1.1027                 1.0912
 Frc consts  --      6.5310                 6.6419                 6.6953
 IR Inten    --      0.4507                 3.9685                 2.0810

                     64                     65                     66
                      A                      A                      A
 Frequencies --   3229.1338              3242.6884              3253.5385
 Red. masses --      1.0889                 1.0966                 1.0908
 Frc consts  --      6.6895                 6.7940                 6.8033
 IR Inten    --      1.5905                 0.5814                 1.7021

                     67                     68                     69
                      A                      A                      A
 Frequencies --   3736.4045              3807.0102              3816.4813
 Red. masses --      1.0652                 1.0680                 1.0662
 Frc consts  --      8.7615                 9.1199                 9.1498
 IR Inten    --    355.3248                74.5269               655.5730

 - Thermochemistry -
 -------------------
 Temperature   298.150 Kelvin.  Pressure   1.00000 Atm.
 Atom     1 has atomic number  6 and mass  12.00000

 Molecular mass:   195.06573 amu.
 Principal axes and moments of inertia in atomic units:
                           1         2         3
     Eigenvalues --  1172.464766323.606087481.05351
           X            0.99994   0.01087   0.00015
           Y           -0.01088   0.99994   0.00204
           Z           -0.00013  -0.00204   1.00000
 This molecule is an asymmetric top.
 Rotational symmetry number  1.
 Warning -- assumption of classical behavior for rotation
           may cause significant error
 Rotational temperatures (Kelvin)      0.07387     0.01370     0.01158
 Rotational constants (GHZ):           1.53927     0.28540     0.24124
 Zero-point vibrational energy     521481.9 (Joules/Mol)
                                  124.63716 (Kcal/Mol)
 Warning -- explicit consideration of  22 degrees of freedom as
           vibrations may cause significant error
 Vibrational temperatures:     70.44    87.35   120.17   136.51   209.05
          (Kelvin)            253.14   274.45   321.44   325.59   377.30
                              441.72   468.59   504.98   533.44   608.82
                              660.56   712.54   756.78   810.74   833.42
                              841.95   879.79   908.57   995.70  1042.20
                             1124.55  1196.17  1197.97  1239.17  1255.03
                             1381.53  1395.58  1432.01  1440.76  1517.33
                             1639.01  1657.46  1680.31  1684.91  1723.18
                             1759.64  1774.23  1839.00  1881.29  1925.71
                             1939.42  1986.91  2071.20  2125.90  2136.79
                             2153.07  2156.88  2172.93  2262.88  2320.12
                             2334.63  2363.77  2430.47  4387.68  4508.38
                             4588.10  4600.36  4643.03  4646.00  4665.50
                             4681.11  5375.85  5477.43  5491.06

 Zero-point correction=                           0.198622 (Hartree/Particle)
 Thermal correction to Energy=                    0.212227
 Thermal correction to Enthalpy=                  0.213171
 Thermal correction to Gibbs Free Energy=         0.157957
 Sum of electronic and zero-point Energies=           -687.900169
 Sum of electronic and thermal Energies=              -687.886564
 Sum of electronic and thermal Enthalpies=            -687.885620
 Sum of electronic and thermal Free Energies=         -687.940834

                     E (Thermal)             CV                S
                      KCal/Mol        Cal/Mol-Kelvin    Cal/Mol-Kelvin
 Total                  133.174             51.057            116.208
 Electronic               0.000              0.000              0.000
 Translational            0.889              2.981             41.710
 Rotational               0.889              2.981             32.384
 Vibrational            131.397             45.095             42.114
 Vibration     1          0.595              1.978              4.859
 Vibration     2          0.597              1.973              4.434
 Vibration     3          0.600              1.961              3.806
 Vibration     4          0.603              1.953              3.557
 Vibration     5          0.617              1.908              2.733
 Vibration     6          0.628              1.872              2.371
 Vibration     7          0.634              1.853              2.221
 Vibration     8          0.649              1.805              1.931
 Vibration     9          0.650              1.801              1.908
 Vibration    10          0.670              1.742              1.647
 Vibration    11          0.697              1.660              1.378
 Vibration    12          0.710              1.624              1.281
 Vibration    13          0.728              1.573              1.162
 Vibration    14          0.743              1.532              1.077
 Vibration    15          0.785              1.420              0.881
 Vibration    16          0.817              1.341              0.769
 Vibration    17          0.851              1.261              0.670
 Vibration    18          0.881              1.192              0.596
 Vibration    19          0.919              1.110              0.517
 Vibration    20          0.936              1.076              0.487
 Vibration    21          0.942              1.063              0.476
 Vibration    22          0.971              1.008              0.430

 Optimization completed.
    -- Stationary point found.
 Normal termination of Gaussian 09 at Sun Dec 15 13:04:09 2024.
