 Gaussian 09, Revision E.01,
 Gaussian 09:  ES64L-G09RevE.01 30-Nov-2015

 -----------------------------
 # opt freq b3pw91/6-31+g(d,p)
 -----------------------------

 ----------
 [No Title]
 ----------
 Symbolic Z-matrix:
 Charge =  0 Multiplicity = 1

 SCF Done:  E(RB3PW91) =  -687.738067728     A.U. after   16 cycles
 SCF Done:  E(RB3PW91) =  -687.738363493     A.U. after   12 cycles
 SCF Done:  E(RB3PW91) =  -687.738393523     A.U. after   11 cycles
 SCF Done:  E(RB3PW91) =  -687.738382506     A.U. after   11 cycles
 SCF Done:  E(RB3PW91) =  -687.738396010     A.U. after   11 cycles
 Optimization completed.
    -- Stationary point found.
 Normal termination of Gaussian 09 at Sat Dec 14 23:33:42 2024.

 ----------------------------------------------------------------------
 #N Geom=AllCheck Guess=TCheck SCRF=Check GenChk RB3PW91/6-31+G(d,p) Fr
 eq
 ----------------------------------------------------------------------

 Structure from the checkpoint file:  "B3PW91FA.chk"
 ----------
 [No Title]
 ----------
 Charge =  0 Multiplicity = 1

                         Standard orientation:
 ---------------------------------------------------------------------
 Center     Atomic      Atomic             Coordinates (Angstroms)
 Number     Number       Type             X           Y           Z
 ---------------------------------------------------------------------
      1          6           0        1.460837   -2.013762   -0.000419
      2          6           0        2.494064   -1.080651   -0.000277
      3          6           0        2.189003    0.294670   -0.000079
      4          6           0        0.866621    0.712699   -0.000018
      5          6           0       -0.186313   -0.226828   -0.000152
      6          6           0        0.136464   -1.592707   -0.000359
      7          8           0        3.780849   -1.494280   -0.000337
      8          6           0       -1.557275    0.271903   -0.000070
      9          6           0       -2.696714   -0.448627    0.000124
     10          8           0        3.291549    1.101821    0.000036
     11          6           0        3.099486    2.506606    0.000394
     12          6           0       -4.077238    0.078024    0.000317
     13          8           0       -5.041308   -0.655484    0.002101
     14          8           0       -4.269800    1.423580   -0.001118
     15          1           0        1.714740   -3.068887   -0.000579
     16          1           0        0.630757    1.772301    0.000146
     17          1           0       -0.649609   -2.340279   -0.000483
     18          1           0        4.349001   -0.709169   -0.000205
     19          1           0       -1.617093    1.363173   -0.000031
     20          1           0       -2.676646   -1.533616    0.000438
     21          1           0        4.096772    2.947324    0.000513
     22          1           0        2.558151    2.830295   -0.896741
     23          1           0        2.558135    2.829834    0.897685
     24          1           0       -3.428134    1.895968   -0.002974
 ---------------------------------------------------------------------

 SCF Done:  E(RB3PW91) =  -687.738396010     A.U. after    1 cycles

 The electronic state is 1-A.
 Alpha  occ. eigenvalues --  -19.21490 -19.19891 -19.19397 -19.12864 -10.31029
 Alpha  occ. eigenvalues --  -10.26570 -10.26510 -10.25801 -10.22739 -10.21596
 Alpha  occ. eigenvalues --  -10.21212 -10.20494 -10.20432 -10.20146  -1.11875
 Alpha  occ. eigenvalues --   -1.10973  -1.08757  -1.02477  -0.89152  -0.82993
 Alpha  occ. eigenvalues --   -0.78916  -0.77267  -0.73221  -0.67974  -0.64136
 Alpha  occ. eigenvalues --   -0.62925  -0.60586  -0.58786  -0.55820  -0.53403
 Alpha  occ. eigenvalues --   -0.51921  -0.50578  -0.48759  -0.47374  -0.45701
 Alpha  occ. eigenvalues --   -0.45113  -0.45042  -0.44226  -0.43289  -0.41211
 Alpha  occ. eigenvalues --   -0.40515  -0.38526  -0.38484  -0.37692  -0.36816
 Alpha  occ. eigenvalues --   -0.36672  -0.32611  -0.30645  -0.27986  -0.26974
 Alpha  occ. eigenvalues --   -0.23140
 Alpha virt. eigenvalues --   -0.08269  -0.02799  -0.01154  -0.00068   0.00519
 Alpha virt. eigenvalues --    0.00914   0.02036   0.03817   0.04126   0.04422
 Alpha virt. eigenvalues --    0.05703   0.05922   0.06437   0.06756   0.07709

 Mulliken charges:
               1
     1  C    0.250592
     2  C   -0.371370
     3  C    0.085673
     4  C   -0.389529
     5  C    0.299472
     6  C   -0.316247
     7  O   -0.498328
     8  C   -0.147242
     9  C    0.239632
    10  O   -0.406648
    11  C   -0.172171
    12  C    0.321909
    13  O   -0.436517
    14  O   -0.410511
    15  H    0.170751
    16  H    0.141525
    17  H    0.151100
    18  H    0.394590
    19  H    0.098571
    20  H    0.162077
    21  H    0.171446
    22  H    0.164229
    23  H    0.164238
    24  H    0.332756
 Sum of Mulliken charges =  -0.00000

 Dipole moment (field-independent basis, Debye):
    X=              6.8930    Y=              3.7775    Z=             -0.0051  Tot=              7.8602
 Quadrupole moment (field-independent basis, Debye-Ang):
   XX=           -114.5135   YY=            -70.1575   ZZ=            -84.5023
   XY=              5.6208   XZ=              0.0273   YZ=             -0.0015

  Exact polarizability: 239.224   3.890 138.679  -0.014   0.002  72.505
 Approx polarizability: 363.984   9.780 218.934  -0.047  -0.023 105.807

 ******    1 imaginary frequencies (negative Signs) ******

                      1                      2                      3
                      A                      A                      A
 Frequencies --    -67.0668                27.1733                70.9288
 Red. masses --      2.5726                 4.1681                 4.5816
 Frc consts  --      0.0068                 0.0018                 0.0136
 IR Inten    --     18.6434                 0.5363                 6.9358

                      4                      5                      6
                      A                      A                      A
 Frequencies --     79.2896                84.0167               165.2207
 Red. masses --      3.6795                 6.0801                 4.2183
 Frc consts  --      0.0136                 0.0253                 0.0678
 IR Inten    --      0.9891                 3.8381                 0.6418

                      7                      8                      9
                      A                      A                      A
 Frequencies --    196.7511               214.0449               231.0373
 Red. masses --      3.8491                 1.4760                 7.1645
 Frc consts  --      0.0878                 0.0398                 0.2253
 IR Inten    --      4.1985                 0.0221                 6.9111

                     10                     11                     12
                      A                      A                      A
 Frequencies --    278.7733               303.0535               356.4179
 Red. masses --      2.1898                 6.2398                 4.6759
 Frc consts  --      0.1003                 0.3376                 0.3500
 IR Inten    --      0.1011                 7.7197                 4.0196

                     13                     14                     15
                      A                      A                      A
 Frequencies --    357.6629               397.0297               456.4157
 Red. masses --      3.3752                 1.3838                 2.9906
 Frc consts  --      0.2544                 0.1285                 0.3670
 IR Inten    --      7.8742                75.0606                 9.3536

                     16                     17                     18
                      A                      A                      A
 Frequencies --    486.6822               494.9108               526.5976
 Red. masses --      5.3016                 1.1031                 6.0141
 Frc consts  --      0.7399                 0.1592                 0.9826
 IR Inten    --      0.9513               104.2603                 2.3765

                     19                     20                     21
                      A                      A                      A
 Frequencies --    575.7074               581.9132               584.7817
 Red. masses --      4.0716                 7.2680                 3.7787
 Frc consts  --      0.7951                 1.4500                 0.7613
 IR Inten    --      9.3224                29.6532                 9.1651

                     22                     23                     24
                      A                      A                      A
 Frequencies --    653.6293               703.2101               726.3611
 Red. masses --      5.6435                 4.8497                 4.5754
 Frc consts  --      1.4206                 1.4130                 1.4223
 IR Inten    --      3.0371                 0.0201                 0.0637

                     25                     26                     27
                      A                      A                      A
 Frequencies --    779.2107               825.2332               829.6605
 Red. masses --      5.8213                 5.3088                 1.4639
 Frc consts  --      2.0825                 2.1301                 0.5937
 IR Inten    --      9.7196                13.1180                17.5905

                     28                     29                     30
                      A                      A                      A
 Frequencies --    847.0594               882.1321               922.1930
 Red. masses --      1.6006                 2.0514                 5.1072
 Frc consts  --      0.6766                 0.9405                 2.5590
 IR Inten    --     36.0907                 0.4085                30.5377

                     31                     32                     33
                      A                      A                      A
 Frequencies --    951.8169               962.6378               989.0233
 Red. masses --      1.3090                 3.5672                 1.1218
 Frc consts  --      0.6987                 1.9476                 0.6465
 IR Inten    --      5.1195                 7.5272                42.8191

                     34                     35                     36
                      A                      A                      A
 Frequencies --   1072.1040              1152.1678              1172.7271
 Red. masses --      3.8479                 1.5210                 1.2723
 Frc consts  --      2.6059                 1.1896                 1.0309
 IR Inten    --     37.0570                39.8828                 0.5648

                     37                     38                     39
                      A                      A                      A
 Frequencies --   1178.2646              1196.1584              1216.4661
 Red. masses --      1.5049                 1.5024                 1.6019
 Frc consts  --      1.2309                 1.2665                 1.3966
 IR Inten    --     51.6189                15.6546               173.3360

                     40                     41                     42
                      A                      A                      A
 Frequencies --   1228.9793              1268.5887              1300.4203
 Red. masses --      1.4206                 2.1170                 1.9756
 Frc consts  --      1.2642                 2.0073                 1.9685
 IR Inten    --     87.6467                55.1710                84.2439

                     43                     44                     45
                      A                      A                      A
 Frequencies --   1317.0378              1323.6623              1353.0375
 Red. masses --      2.0653                 2.0906                 3.3086
 Frc consts  --      2.1107                 2.1581                 3.5687
 IR Inten    --    324.5041               474.6593               182.3318

                     46                     47                     48
                      A                      A                      A
 Frequencies --   1363.6656              1431.0164              1467.6392
 Red. masses --      1.6902                 2.9147                 2.0073
 Frc consts  --      1.8518                 3.5167                 2.5475
 IR Inten    --     32.9212                29.5362                 8.1656

                     49                     50                     51
                      A                      A                      A
 Frequencies --   1489.3887              1493.7053              1506.5317
 Red. masses --      1.6870                 1.0438                 1.0987
 Frc consts  --      2.2048                 1.3721                 1.4693
 IR Inten    --     24.9296                10.8012                50.5349

                     52                     53                     54
                      A                      A                      A
 Frequencies --   1567.7634              1645.8298              1665.2403
 Red. masses --      3.7597                 5.9310                 6.5154
 Frc consts  --      5.4445                 9.4655                10.6450
 IR Inten    --    298.7750               187.1192                85.6656

                     55                     56                     57
                      A                      A                      A
 Frequencies --   1697.8592              1820.3419              3033.7597
 Red. masses --      5.7454                10.0087                 1.0335
 Frc consts  --      9.7583                19.5403                 5.6046
 IR Inten    --     53.7834               558.8058                46.2724

                     58                     59                     60
                      A                      A                      A
 Frequencies --   3108.7252              3119.8270              3174.9164
 Red. masses --      1.1069                 1.0877                 1.1013
 Frc consts  --      6.3025                 6.2378                 6.5404
 IR Inten    --     28.6511                33.8091                15.5848

                     61                     62                     63
                      A                      A                      A
 Frequencies --   3213.3635              3216.8084              3225.9516
 Red. masses --      1.0899                 1.0885                 1.0905
 Frc consts  --      6.6308                 6.6363                 6.6863
 IR Inten    --      5.7498                 4.6070                 0.9066

                     64                     65                     66
                      A                      A                      A
 Frequencies --   3232.7200              3788.9463              3844.8270
 Red. masses --      1.0944                 1.0652                 1.0654
 Frc consts  --      6.7385                 9.0099                 9.2797
 IR Inten    --      4.1536               162.1814                17.0494

 - Thermochemistry -
 -------------------
 Temperature   298.150 Kelvin.  Pressure   1.00000 Atm.
 Atom     1 has atomic number  6 and mass  12.00000

 Molecular mass:   194.05791 amu.
 Principal axes and moments of inertia in atomic units:
                           1         2         3
     Eigenvalues --  1166.914116337.821537493.14623
           X            0.99994   0.01127   0.00007
           Y           -0.01127   0.99994   0.00002
           Z           -0.00007  -0.00002   1.00000
 This molecule is an asymmetric top.
 Rotational symmetry number  1.
 Warning -- assumption of classical behavior for rotation
           may cause significant error
 Rotational temperatures (Kelvin)      0.07422     0.01367     0.01156
 Rotational constants (GHZ):           1.54659     0.28476     0.24085
    1 imaginary frequencies ignored.
 Zero-point vibrational energy     487053.7 (Joules/Mol)
                                  116.40862 (Kcal/Mol)
 Warning -- explicit consideration of  20 degrees of freedom as
           vibrations may cause significant error
 Vibrational temperatures:     39.10   102.05   114.08   120.88   237.72
          (Kelvin)            283.08   307.96   332.41   401.09   436.03
                              512.81   514.60   571.24   656.68   700.23
                              712.07   757.66   828.31   837.24   841.37
                              940.43  1011.76  1045.07  1121.11  1187.33
                             1193.69  1218.73  1269.19  1326.83  1369.45
                             1385.02  1422.98  1542.52  1657.71  1687.29
                             1695.26  1721.00  1750.22  1768.22  1825.21
                             1871.01  1894.92  1904.45  1946.72  1962.01
                             2058.91  2111.60  2142.90  2149.11  2167.56
                             2255.66  2367.98  2395.91  2442.84  2619.06
                             4364.90  4472.76  4488.73  4567.99  4623.31
                             4628.26  4641.42  4651.16  5451.44  5531.84

 Zero-point correction=                           0.185509 (Hartree/Particle)
 Thermal correction to Energy=                    0.198221
 Thermal correction to Enthalpy=                  0.199165
 Thermal correction to Gibbs Free Energy=         0.145131
 Sum of electronic and zero-point Energies=           -687.552887
 Sum of electronic and thermal Energies=              -687.540175
 Sum of electronic and thermal Enthalpies=            -687.539231
 Sum of electronic and thermal Free Energies=         -687.593265

                     E (Thermal)             CV                S
                      KCal/Mol        Cal/Mol-Kelvin    Cal/Mol-Kelvin
 Total                  124.385             47.712            113.723
 Electronic               0.000              0.000              0.000
 Translational            0.889              2.981             41.694
 Rotational               0.889              2.981             32.383
 Vibrational            122.608             41.750             39.646
 Vibration     1          0.593              1.984              6.026
 Vibration     2          0.598              1.968              4.127
 Vibration     3          0.600              1.963              3.908
 Vibration     4          0.601              1.960              3.795
 Vibration     5          0.624              1.885              2.489
 Vibration     6          0.636              1.844              2.163
 Vibration     7          0.644              1.820              2.009
 Vibration     8          0.653              1.794              1.871
 Vibration     9          0.679              1.713              1.541
 Vibration    10          0.695              1.668              1.400
 Vibration    11          0.732              1.562              1.138
 Vibration    12          0.733              1.560              1.132
 Vibration    13          0.764              1.477              0.974
 Vibration    14          0.815              1.347              0.777
 Vibration    15          0.843              1.280              0.692
 Vibration    16          0.851              1.261              0.671
 Vibration    17          0.882              1.191              0.595
 Vibration    18          0.932              1.084              0.493
 Vibration    19          0.939              1.070              0.482
 Vibration    20          0.942              1.064              0.477

 Normal termination of Gaussian 09 at Sat Dec 14 23:35:47 2024.
