 Gaussian 09, Revision E.01,
 Gaussian 09:  ES64L-G09RevE.01 30-Nov-2015

 --------------------------------
 # opt freq cam-b3lyp/6-31+g(d,p)
 --------------------------------

 ----------
 [No Title]
 ----------
 Symbolic Z-matrix:
 Charge =  0 Multiplicity = 1

 SCF Done:  E(RCAM-B3LYP) =  -687.701207734     A.U. after   17 cycles
 SCF Done:  E(RCAM-B3LYP) =  -687.701834615     A.U. after   12 cycles
 SCF Done:  E(RCAM-B3LYP) =  -687.701868594     A.U. after   12 cycles
 SCF Done:  E(RCAM-B3LYP) =  -687.701871850     A.U. after   10 cycles
 SCF Done:  E(RCAM-B3LYP) =  -687.701872035     A.U. after    9 cycles
 Optimization completed.
    -- Stationary point found.
 Normal termination of Gaussian 09 at Thu Jun 20 11:45:58 2024.

 ----------------------------------------------------------------------
 #N Geom=AllCheck Guess=TCheck SCRF=Check GenChk RCAM-B3LYP/6-31+G(d,p)
  Freq
 ----------------------------------------------------------------------

 Structure from the checkpoint file:  "camb3lypFAgd3.chk"
 ----------
 [No Title]
 ----------
 Charge =  0 Multiplicity = 1

                         Standard orientation:
 ---------------------------------------------------------------------
 Center     Atomic      Atomic             Coordinates (Angstroms)
 Number     Number       Type             X           Y           Z
 ---------------------------------------------------------------------
      1          6           0        1.486620   -2.011687   -0.000328
      2          6           0        2.500260   -1.064951   -0.000337
      3          6           0        2.176590    0.300450   -0.000175
      4          6           0        0.851854    0.699541   -0.000010
      5          6           0       -0.181960   -0.253702   -0.000004
      6          6           0        0.157485   -1.609469   -0.000161
      7          8           0        3.796147   -1.456444   -0.000496
      8          6           0       -1.562884    0.228450    0.000172
      9          6           0       -2.681840   -0.510984    0.000106
     10          6           0       -4.029914    0.067010    0.000296
     11          8           0       -5.052845   -0.586132    0.000317
     12          8           0       -4.058997    1.422296    0.000637
     13          8           0        3.266415    1.126803   -0.000203
     14          6           0        3.051597    2.527315    0.000034
     15          1           0        1.757747   -3.061474   -0.000447
     16          1           0        0.596736    1.752906    0.000114
     17          1           0       -0.618637   -2.366045   -0.000148
     18          1           0        4.355130   -0.665097   -0.000469
     19          1           0       -1.681535    1.309351    0.000371
     20          1           0       -2.675316   -1.594562   -0.000097
     21          1           0       -4.994803    1.675841    0.000798
     22          1           0        4.039857    2.985173    0.000009
     23          1           0        2.504013    2.840082   -0.895551
     24          1           0        2.504186    2.839804    0.895822
 ---------------------------------------------------------------------

 SCF Done:  E(RCAM-B3LYP) =  -687.701872035     A.U. after    1 cycles

 The electronic state is 1-A.
 Alpha  occ. eigenvalues --  -19.28640 -19.27818 -19.27109 -19.21888 -10.40327
 Alpha  occ. eigenvalues --  -10.34338 -10.34283 -10.33787 -10.29844 -10.28973
 Alpha  occ. eigenvalues --  -10.28836 -10.28161 -10.27937 -10.27863  -1.19575
 Alpha  occ. eigenvalues --   -1.18667  -1.15339  -1.09950  -0.96403  -0.90162
 Alpha  occ. eigenvalues --   -0.85848  -0.84518  -0.80168  -0.74985  -0.70773
 Alpha  occ. eigenvalues --   -0.69160  -0.66313  -0.64724  -0.61152  -0.58480
 Alpha  occ. eigenvalues --   -0.57201  -0.56869  -0.55146  -0.54052  -0.53273
 Alpha  occ. eigenvalues --   -0.52590  -0.51172  -0.50320  -0.49152  -0.47428
 Alpha  occ. eigenvalues --   -0.46447  -0.45126  -0.44129  -0.43095  -0.42278
 Alpha  occ. eigenvalues --   -0.42183  -0.39296  -0.35679  -0.34931  -0.31419
 Alpha  occ. eigenvalues --   -0.27194
 Alpha virt. eigenvalues --   -0.03012   0.02165   0.02511   0.02731   0.03525
 Alpha virt. eigenvalues --    0.04318   0.05373   0.05378   0.06780   0.06890
 Alpha virt. eigenvalues --    0.07811   0.08134   0.08710   0.09138   0.10002

 Mulliken charges:
               1
     1  C    0.161856
     2  C   -0.136843
     3  C    0.351231
     4  C   -0.420577
     5  C    0.161305
     6  C   -0.327458
     7  O   -0.542264
     8  C    0.059665
     9  C   -0.315778
    10  C    0.686129
    11  O   -0.499378
    12  O   -0.521162
    13  O   -0.472854
    14  C   -0.137038
    15  H    0.151372
    16  H    0.128754
    17  H    0.128709
    18  H    0.395566
    19  H    0.151459
    20  H    0.139850
    21  H    0.390878
    22  H    0.157394
    23  H    0.154592
    24  H    0.154592
 Sum of Mulliken charges =   0.00000

 Dipole moment (field-independent basis, Debye):
    X=              3.3587    Y=              3.8722    Z=              0.0003  Tot=              5.1259
 Quadrupole moment (field-independent basis, Debye-Ang):
   XX=            -93.2898   YY=            -72.6357   ZZ=            -85.2223
   XY=              0.5694   XZ=              0.0002   YZ=              0.0015

  Exact polarizability: 226.678   4.113 135.949  -0.012   0.007  73.257
 Approx polarizability: 237.162   8.186 166.761  -0.011   0.008  92.506

                      1                      2                      3
                      A                      A                      A
 Frequencies --     24.2785                66.2075                79.8654
 Red. masses --      6.1517                 5.4487                 3.5331
 Frc consts  --      0.0021                 0.0141                 0.0133
 IR Inten    --      1.2141                 0.4921                 4.0073

                      4                      5                      6
                      A                      A                      A
 Frequencies --     83.5806               123.6300               177.0066
 Red. masses --      5.8848                 3.4309                 3.2734
 Frc consts  --      0.0242                 0.0309                 0.0604
 IR Inten    --      0.6013                 0.0382                 0.3946

                      7                      8                      9
                      A                      A                      A
 Frequencies --    200.4539               224.3967               226.6268
 Red. masses --      3.9267                 1.4567                 7.4247
 Frc consts  --      0.0930                 0.0432                 0.2247
 IR Inten    --      3.7714                 0.1593                 1.0242

                     10                     11                     12
                      A                      A                      A
 Frequencies --    287.9171               309.4155               360.8399
 Red. masses --      2.3646                 6.3960                 4.7610
 Frc consts  --      0.1155                 0.3608                 0.3652
 IR Inten    --      0.0058                 3.5315                 4.4970

                     13                     14                     15
                      A                      A                      A
 Frequencies --    379.5534               464.1919               486.6172
 Red. masses --      4.1257                 2.3813                 1.2149
 Frc consts  --      0.3502                 0.3023                 0.1695
 IR Inten    --      0.2083                25.3084                89.7377

                     16                     17                     18
                      A                      A                      A
 Frequencies --    491.7407               534.4161               563.2186
 Red. masses --      5.5767                 6.4763                 1.2450
 Frc consts  --      0.7945                 1.0898                 0.2327
 IR Inten    --     15.2494                 1.2234                69.2105

                     19                     20                     21
                      A                      A                      A
 Frequencies --    580.6329               584.4985               606.5546
 Red. masses --      4.0639                 5.9858                 2.8462
 Frc consts  --      0.8072                 1.2049                 0.6170
 IR Inten    --      5.5537                57.0966                50.4399

                     22                     23                     24
                      A                      A                      A
 Frequencies --    649.8508               719.6628               756.0016
 Red. masses --      4.5026                 4.5895                 4.1558
 Frc consts  --      1.1203                 1.4005                 1.3994
 IR Inten    --     25.7853                 1.5075                 8.0931

                     25                     26                     27
                      A                      A                      A
 Frequencies --    786.0221               833.5235               850.7416
 Red. masses --      5.5268                 5.2408                 1.4678
 Frc consts  --      2.0118                 2.1453                 0.6259
 IR Inten    --     14.2022                18.6538                28.6488

                     28                     29                     30
                      A                      A                      A
 Frequencies --    883.5488               916.6018               938.7288
 Red. masses --      1.5643                 1.9354                 4.2280
 Frc consts  --      0.7195                 0.9580                 2.1951
 IR Inten    --     45.5893                 4.1939                23.5561

                     31                     32                     33
                      A                      A                      A
 Frequencies --    970.6421               976.1966              1034.3279
 Red. masses --      3.5702                 1.3306                 1.1611
 Frc consts  --      1.9818                 0.7471                 0.7319
 IR Inten    --      7.6910                 2.4010                34.2529

                     34                     35                     36
                      A                      A                      A
 Frequencies --   1086.6973              1162.1441              1185.5376
 Red. masses --      3.7546                 1.4728                 1.2713
 Frc consts  --      2.6123                 1.1720                 1.0527
 IR Inten    --     38.3134                64.1544                 0.8340

                     37                     38                     39
                      A                      A                      A
 Frequencies --   1197.5577              1204.1297              1227.9602
 Red. masses --      1.7303                 1.5828                 1.6128
 Frc consts  --      1.4620                 1.3521                 1.4329
 IR Inten    --    382.3136                27.8801                47.9670

                     40                     41                     42
                      A                      A                      A
 Frequencies --   1238.5332              1277.5388              1312.5370
 Red. masses --      1.3799                 2.3041                 1.9248
 Frc consts  --      1.2471                 2.2156                 1.9537
 IR Inten    --     86.6653               143.4120                46.2615

                     43                     44                     45
                      A                      A                      A
 Frequencies --   1331.9072              1341.9675              1367.0449
 Red. masses --      2.1532                 2.4768                 1.4685
 Frc consts  --      2.2505                 2.6280                 1.6169
 IR Inten    --     60.4294               359.0641                 4.5349

                     46                     47                     48
                      A                      A                      A
 Frequencies --   1395.6620              1424.3429              1483.0270
 Red. masses --      3.5299                 2.6819                 1.8444
 Frc consts  --      4.0511                 3.2057                 2.3901
 IR Inten    --    168.4068                64.9663                 8.2609

                     49                     50                     51
                      A                      A                      A
 Frequencies --   1504.2167              1505.4240              1518.0900
 Red. masses --      1.7730                 1.0439                 1.0986
 Frc consts  --      2.3636                 1.3939                 1.4917
 IR Inten    --     22.4838                10.9127                50.6467

                     52                     53                     54
                      A                      A                      A
 Frequencies --   1587.0694              1677.0992              1691.3373
 Red. masses --      3.7398                 6.2520                 6.6993
 Frc consts  --      5.5500                10.3607                11.2913
 IR Inten    --    296.7175               175.3365                60.0417

                     55                     56                     57
                      A                      A                      A
 Frequencies --   1728.4051              1827.0936              3053.1369
 Red. masses --      6.2420                 9.1072                 1.0338
 Frc consts  --     10.9866                17.9125                 5.6776
 IR Inten    --     59.8393               759.8265                41.0385

                     58                     59                     60
                      A                      A                      A
 Frequencies --   3124.1002              3186.9228              3203.0486
 Red. masses --      1.1074                 1.1021                 1.0904
 Frc consts  --      6.3683                 6.5948                 6.5914
 IR Inten    --     26.4998                15.7955                 1.6089

                     61                     62                     63
                      A                      A                      A
 Frequencies --   3227.9978              3234.7671              3240.9603
 Red. masses --      1.0889                 1.0907                 1.0944
 Frc consts  --      6.6851                 6.7242                 6.7730
 IR Inten    --      4.6019                 3.9827                 0.1896

                     64                     65                     66
                      A                      A                      A
 Frequencies --   3247.3191              3807.2581              3813.4189
 Red. masses --      1.0918                 1.0652                 1.0647
 Frc consts  --      6.7832                 9.0969                 9.1221
 IR Inten    --      4.5338               173.4963               118.8140

 - Thermochemistry -
 -------------------
 Temperature   298.150 Kelvin.  Pressure   1.00000 Atm.
 Atom     1 has atomic number  6 and mass  12.00000

 Molecular mass:   194.05791 amu.
 Principal axes and moments of inertia in atomic units:
                           1         2         3
     Eigenvalues --  1163.570336256.306047408.32709
           X            0.99995   0.00999   0.00009
           Y           -0.00999   0.99995  -0.00012
           Z           -0.00009   0.00012   1.00000
 This molecule is an asymmetric top.
 Rotational symmetry number  1.
 Warning -- assumption of classical behavior for rotation
           may cause significant error
 Rotational temperatures (Kelvin)      0.07444     0.01384     0.01169
 Rotational constants (GHZ):           1.55104     0.28847     0.24361
 Zero-point vibrational energy     493972.4 (Joules/Mol)
                                  118.06225 (Kcal/Mol)
 Warning -- explicit consideration of  21 degrees of freedom as
           vibrations may cause significant error
 Vibrational temperatures:     34.93    95.26   114.91   120.25   177.88
          (Kelvin)            254.67   288.41   322.86   326.07   414.25
                              445.18   519.17   546.09   667.87   700.13
                              707.50   768.90   810.34   835.40   840.96
                              872.70   934.99  1035.43  1087.72  1130.91
                             1199.25  1224.03  1271.23  1318.78  1350.62
                             1396.54  1404.53  1488.17  1563.51  1672.06
                             1705.72  1723.02  1732.47  1766.76  1781.97
                             1838.09  1888.45  1916.32  1930.79  1966.87
                             2008.04  2049.31  2133.74  2164.23  2165.97
                             2184.19  2283.44  2412.97  2433.45  2486.79
                             2628.78  4392.78  4494.88  4585.27  4608.47
                             4644.36  4654.10  4663.01  4672.16  5477.79
                             5486.65

 Zero-point correction=                           0.188144 (Hartree/Particle)
 Thermal correction to Energy=                    0.201256
 Thermal correction to Enthalpy=                  0.202200
 Thermal correction to Gibbs Free Energy=         0.147105
 Sum of electronic and zero-point Energies=           -687.513728
 Sum of electronic and thermal Energies=              -687.500616
 Sum of electronic and thermal Enthalpies=            -687.499672
 Sum of electronic and thermal Free Energies=         -687.554767

                     E (Thermal)             CV                S
                      KCal/Mol        Cal/Mol-Kelvin    Cal/Mol-Kelvin
 Total                  126.290             48.601            115.957
 Electronic               0.000              0.000              0.000
 Translational            0.889              2.981             41.694
 Rotational               0.889              2.981             32.356
 Vibrational            124.513             42.640             41.907
 Vibration     1          0.593              1.985              6.249
 Vibration     2          0.598              1.970              4.263
 Vibration     3          0.600              1.963              3.894
 Vibration     4          0.600              1.960              3.805
 Vibration     5          0.610              1.929              3.043
 Vibration     6          0.628              1.871              2.360
 Vibration     7          0.638              1.839              2.129
 Vibration     8          0.649              1.804              1.923
 Vibration     9          0.650              1.800              1.906
 Vibration    10          0.685              1.696              1.486
 Vibration    11          0.699              1.656              1.365
 Vibration    12          0.735              1.553              1.118
 Vibration    13          0.750              1.514              1.041
 Vibration    14          0.822              1.329              0.754
 Vibration    15          0.843              1.280              0.692
 Vibration    16          0.847              1.268              0.679
 Vibration    17          0.889              1.174              0.577
 Vibration    18          0.919              1.111              0.517
 Vibration    19          0.937              1.073              0.484
 Vibration    20          0.941              1.065              0.477
 Vibration    21          0.965              1.018              0.439

 Optimization completed.
    -- Stationary point found.
 Normal termination of Gaussian 09 at Thu Jun 20 11:51:12 2024.
