 Gaussian 09, Revision E.01,
 Gaussian 09:  ES64L-G09RevE.01 30-Nov-2015

 --------------------------------
 # opt freq cam-b3lyp/6-31+g(d,p)
 --------------------------------

 ----------
 [No Title]
 ----------
 Symbolic Z-matrix:
 Charge =  1 Multiplicity = 1

 SCF Done:  E(RCAM-B3LYP) =  -688.040319824     A.U. after   16 cycles
 SCF Done:  E(RCAM-B3LYP) =  -688.040907312     A.U. after   12 cycles
 SCF Done:  E(RCAM-B3LYP) =  -688.040944069     A.U. after   12 cycles
 SCF Done:  E(RCAM-B3LYP) =  -688.040949925     A.U. after   11 cycles
 SCF Done:  E(RCAM-B3LYP) =  -688.040953507     A.U. after   11 cycles
 SCF Done:  E(RCAM-B3LYP) =  -688.040956652     A.U. after   11 cycles
 SCF Done:  E(RCAM-B3LYP) =  -688.040959601     A.U. after   11 cycles
 SCF Done:  E(RCAM-B3LYP) =  -688.040960752     A.U. after   11 cycles
 Optimization completed.
    -- Stationary point found.
 Normal termination of Gaussian 09 at Thu Jun 20 14:40:39 2024.

 ----------------------------------------------------------------------
 #N Geom=AllCheck Guess=TCheck SCRF=Check GenChk RCAM-B3LYP/6-31+G(d,p)
  Freq
 ----------------------------------------------------------------------

 Structure from the checkpoint file:  "camb3lypFAyanggd3.chk"
 ----------
 [No Title]
 ----------
 Charge =  1 Multiplicity = 1

                         Standard orientation:
 ---------------------------------------------------------------------
 Center     Atomic      Atomic             Coordinates (Angstroms)
 Number     Number       Type             X           Y           Z
 ---------------------------------------------------------------------
      1          6           0        1.472022   -2.024935   -0.020932
      2          6           0        2.506380   -1.083968   -0.010689
      3          6           0        2.221263    0.306681    0.004089
      4          6           0        0.916593    0.730323    0.010220
      5          6           0       -0.146377   -0.217377    0.002553
      6          6           0        0.165168   -1.597779   -0.016137
      7          8           0        3.764640   -1.498304   -0.016238
      8          6           0       -1.472501    0.266191    0.009545
      9          6           0       -2.641084   -0.477499    0.018339
     10          6           0       -3.882790    0.135829    0.000085
     11          8           0       -4.954773   -0.620240    0.090310
     12          8           0       -3.993181    1.445083   -0.114782
     13          8           0        3.334431    1.074720    0.010678
     14          6           0        3.195374    2.493367    0.027624
     15          1           0        1.731256   -3.076959   -0.034589
     16          1           0        0.681855    1.788229    0.021761
     17          1           0       -0.626774   -2.337022   -0.026833
     18          1           0        4.365563   -0.733072   -0.008468
     19          1           0       -1.586437    1.348303    0.007579
     20          1           0       -2.653552   -1.558817    0.039974
     21          1           0       -5.799415   -0.179418   -0.088175
     22          1           0       -4.869718    1.806616    0.085279
     23          1           0        4.207434    2.892430    0.030816
     24          1           0        2.666944    2.837967   -0.866458
     25          1           0        2.669617    2.816675    0.931195
 ---------------------------------------------------------------------

 SCF Done:  E(RCAM-B3LYP) =  -688.040960752     A.U. after    1 cycles

 The electronic state is 1-A.
 Alpha  occ. eigenvalues --  -19.47140 -19.46914 -19.40044 -19.39621 -10.60111
 Alpha  occ. eigenvalues --  -10.48466 -10.46703 -10.46387 -10.43376 -10.42675
 Alpha  occ. eigenvalues --  -10.42299 -10.41989 -10.41893 -10.40303  -1.40623
 Alpha  occ. eigenvalues --   -1.32577  -1.31021  -1.27796  -1.09879  -1.06008
 Alpha  occ. eigenvalues --   -0.99834  -0.98341  -0.93420  -0.90986  -0.88019
 Alpha  occ. eigenvalues --   -0.85997  -0.82707  -0.79624  -0.77640  -0.75016
 Alpha  occ. eigenvalues --   -0.72660  -0.72011  -0.71044  -0.69538  -0.67604
 Alpha  occ. eigenvalues --   -0.66099  -0.65093  -0.63625  -0.62705  -0.62580
 Alpha  occ. eigenvalues --   -0.62173  -0.60646  -0.59786  -0.58762  -0.57619
 Alpha  occ. eigenvalues --   -0.54820  -0.53961  -0.53875  -0.49752  -0.44169
 Alpha  occ. eigenvalues --   -0.40107
 Alpha virt. eigenvalues --   -0.20962  -0.13090  -0.09358  -0.09218  -0.07637
 Alpha virt. eigenvalues --   -0.06696  -0.06249  -0.05935  -0.04521  -0.04200
 Alpha virt. eigenvalues --   -0.03190  -0.03054  -0.02254  -0.01963  -0.01782

 Mulliken charges:
               1
     1  C    0.079598
     2  C   -0.070936
     3  C    0.347841
     4  C   -0.380251
     5  C    0.150533
     6  C   -0.211550
     7  O   -0.475027
     8  C    0.193764
     9  C   -0.731202
    10  C    1.027407
    11  O   -0.416003
    12  O   -0.468063
    13  O   -0.467626
    14  C   -0.128614
    15  H    0.183652
    16  H    0.151599
    17  H    0.148407
    18  H    0.416107
    19  H    0.173977
    20  H    0.171314
    21  H    0.394928
    22  H    0.399583
    23  H    0.182750
    24  H    0.163956
    25  H    0.163855
 Sum of Mulliken charges =   1.00000

 Dipole moment (field-independent basis, Debye):
    X=             -8.4515    Y=              3.6801    Z=              0.0619  Tot=              9.2182
 Quadrupole moment (field-independent basis, Debye-Ang):
   XX=              8.4326   YY=            -62.4949   ZZ=            -83.1264
   XY=             -2.7296   XZ=              0.3006   YZ=              1.0233

  Exact polarizability: 309.096 -20.220 131.448  -0.432   0.027  68.729
 Approx polarizability: 334.348 -30.667 161.712  -0.803  -0.234  87.685

                      1                      2                      3
                      A                      A                      A
 Frequencies --     47.6145                60.4967                85.1186
 Red. masses --      6.6260                 5.7943                 5.1473
 Frc consts  --      0.0089                 0.0125                 0.0220
 IR Inten    --      0.7039                 2.0436                 0.9833

                      4                      5                      6
                      A                      A                      A
 Frequencies --     92.0486               141.8548               172.2299
 Red. masses --      3.2867                 4.7388                 2.3626
 Frc consts  --      0.0164                 0.0562                 0.0413
 IR Inten    --      5.6988                 9.2480                37.1969

                      7                      8                      9
                      A                      A                      A
 Frequencies --    195.1746               220.5437               230.6399
 Red. masses --      3.4847                 1.2281                 5.6550
 Frc consts  --      0.0782                 0.0352                 0.1772
 IR Inten    --     10.5385                58.2148                 2.1836

                     10                     11                     12
                      A                      A                      A
 Frequencies --    257.9232               312.6042               326.6846
 Red. masses --      1.4750                 5.8104                 3.3815
 Frc consts  --      0.0578                 0.3345                 0.2126
 IR Inten    --     68.8566                 0.0456                10.8165

                     13                     14                     15
                      A                      A                      A
 Frequencies --    357.4049               375.1375               433.4563
 Red. masses --      4.6850                 2.1815                 1.1764
 Frc consts  --      0.3526                 0.1809                 0.1302
 IR Inten    --     10.8802                18.1036               272.7481

                     16                     17                     18
                      A                      A                      A
 Frequencies --    466.1507               501.1991               532.5533
 Red. masses --      3.1811                 5.8017                 5.3000
 Frc consts  --      0.4073                 0.8587                 0.8856
 IR Inten    --      0.3684                20.1186                20.5504

                     19                     20                     21
                      A                      A                      A
 Frequencies --    570.5519               582.2389               591.2061
 Red. masses --      4.6995                 2.7072                 3.7679
 Frc consts  --      0.9014                 0.5407                 0.7759
 IR Inten    --     47.5194                42.0792                10.6106

                     22                     23                     24
                      A                      A                      A
 Frequencies --    607.8024               639.2181               708.4623
 Red. masses --      1.2428                 4.6273                 5.1283
 Frc consts  --      0.2705                 1.1140                 1.5166
 IR Inten    --     86.3800                11.3282                 3.3885

                     25                     26                     27
                      A                      A                      A
 Frequencies --    730.3053               790.8805               843.6852
 Red. masses --      5.2385                 5.6020                 5.2393
 Frc consts  --      1.6461                 2.0645                 2.1973
 IR Inten    --      1.2007                18.0462                 1.9171

                     28                     29                     30
                      A                      A                      A
 Frequencies --    850.4925               874.4825               895.0061
 Red. masses --      1.5253                 1.5456                 1.3850
 Frc consts  --      0.6500                 0.6964                 0.6537
 IR Inten    --     11.0960                58.2133                17.3000

                     31                     32                     33
                      A                      A                      A
 Frequencies --    971.9056               991.8274              1009.4582
 Red. masses --      3.4417                 1.3140                 5.1977
 Frc consts  --      1.9154                 0.7616                 3.1206
 IR Inten    --     75.9167                 1.2385               136.3543

                     34                     35                     36
                      A                      A                      A
 Frequencies --   1027.3292              1069.9766              1132.2567
 Red. masses --      1.3368                 4.0326                 1.1329
 Frc consts  --      0.8313                 2.7201                 0.8557
 IR Inten    --     22.7339                53.8058               183.8973

                     37                     38                     39
                      A                      A                      A
 Frequencies --   1157.4593              1168.3442              1183.9585
 Red. masses --      1.5530                 1.4786                 1.2678
 Frc consts  --      1.2258                 1.1892                 1.0470
 IR Inten    --   1258.2436               629.8970                 0.9301

                     40                     41                     42
                      A                      A                      A
 Frequencies --   1207.8962              1233.0896              1247.4555
 Red. masses --      1.3761                 1.2939                 1.5004
 Frc consts  --      1.1830                 1.1592                 1.3756
 IR Inten    --     40.8278               178.0521                42.2684

                     43                     44                     45
                      A                      A                      A
 Frequencies --   1289.6622              1317.0581              1352.7940
 Red. masses --      1.9843                 1.9581                 2.0895
 Frc consts  --      1.9445                 2.0012                 2.2529
 IR Inten    --     35.2406               209.7992                98.7351

                     46                     47                     48
                      A                      A                      A
 Frequencies --   1360.1333              1386.8322              1445.9670
 Red. masses --      1.6158                 3.8383                 3.4290
 Frc consts  --      1.7612                 4.3494                 4.2241
 IR Inten    --    411.2110               442.8072               402.5088

                     49                     50                     51
                      A                      A                      A
 Frequencies --   1488.4925              1497.5691              1508.0953
 Red. masses --      1.7975                 2.1654                 1.0436
 Frc consts  --      2.3465                 2.8613                 1.3984
 IR Inten    --    112.1063               229.5602                15.2140

                     52                     53                     54
                      A                      A                      A
 Frequencies --   1511.6011              1522.0338              1585.3329
 Red. masses --      1.1721                 3.7534                 3.8877
 Frc consts  --      1.5780                 5.1230                 5.7568
 IR Inten    --     89.8465               115.7790              1355.6511

                     55                     56                     57
                      A                      A                      A
 Frequencies --   1627.9165              1642.2872              1654.2512
 Red. masses --      4.4401                 4.5467                 5.4868
 Frc consts  --      6.9328                 7.2251                 8.8466
 IR Inten    --   1648.0536                26.1289               340.6159

                     58                     59                     60
                      A                      A                      A
 Frequencies --   1704.1345              3065.3214              3143.9910
 Red. masses --      6.0242                 1.0335                 1.1087
 Frc consts  --     10.3076                 5.7216                 6.4568
 IR Inten    --    231.7610                23.3442                16.7942

                     61                     62                     63
                      A                      A                      A
 Frequencies --   3203.3634              3208.4351              3241.3942
 Red. masses --      1.0906                 1.1031                 1.0899
 Frc consts  --      6.5938                 6.6903                 6.7466
 IR Inten    --      0.2697                 3.7879                 1.2054

                     64                     65                     66
                      A                      A                      A
 Frequencies --   3241.9153              3254.6247              3269.5965
 Red. masses --      1.0916                 1.0970                 1.0914
 Frc consts  --      6.7596                 6.8466                 6.8742
 IR Inten    --      2.4552                 0.6854                 2.7001

                     67                     68                     69
                      A                      A                      A
 Frequencies --   3752.0731              3810.4922              3821.4138
 Red. masses --      1.0651                 1.0682                 1.0664
 Frc consts  --      8.8349                 9.1383                 9.1753
 IR Inten    --    386.2251                81.1419               743.5406

 - Thermochemistry -
 -------------------
 Temperature   298.150 Kelvin.  Pressure   1.00000 Atm.
 Atom     1 has atomic number  6 and mass  12.00000

 Molecular mass:   195.06573 amu.
 Principal axes and moments of inertia in atomic units:
                           1         2         3
     Eigenvalues --  1167.868796290.667507444.09150
           X            0.99994   0.01083   0.00014
           Y           -0.01083   0.99994   0.00181
           Z           -0.00012  -0.00181   1.00000
 This molecule is an asymmetric top.
 Rotational symmetry number  1.
 Warning -- assumption of classical behavior for rotation
           may cause significant error
 Rotational temperatures (Kelvin)      0.07416     0.01377     0.01164
 Rotational constants (GHZ):           1.54533     0.28689     0.24244
 Zero-point vibrational energy     525166.0 (Joules/Mol)
                                  125.51769 (Kcal/Mol)
 Warning -- explicit consideration of  22 degrees of freedom as
           vibrations may cause significant error
 Vibrational temperatures:     68.51    87.04   122.47   132.44   204.10
          (Kelvin)            247.80   280.81   317.31   331.84   371.09
                              449.77   470.03   514.23   539.74   623.65
                              670.69   721.11   766.22   820.90   837.71
                              850.61   874.49   919.69  1019.32  1050.75
                             1137.90  1213.87  1223.67  1258.18  1287.71
                             1398.35  1427.02  1452.38  1478.10  1539.46
                             1629.06  1665.32  1680.98  1703.45  1737.89
                             1774.14  1794.81  1855.53  1894.95  1946.37
                             1956.93  1995.34  2080.42  2141.61  2154.67
                             2169.81  2174.85  2189.86  2280.94  2342.21
                             2362.88  2380.10  2451.87  4410.31  4523.50
                             4608.92  4616.22  4663.64  4664.39  4682.67
                             4704.21  5398.39  5482.44  5498.16

 Zero-point correction=                           0.200025 (Hartree/Particle)
 Thermal correction to Energy=                    0.213543
 Thermal correction to Enthalpy=                  0.214487
 Thermal correction to Gibbs Free Energy=         0.159367
 Sum of electronic and zero-point Energies=           -687.840936
 Sum of electronic and thermal Energies=              -687.827418
 Sum of electronic and thermal Enthalpies=            -687.826473
 Sum of electronic and thermal Free Energies=         -687.881594

                     E (Thermal)             CV                S
                      KCal/Mol        Cal/Mol-Kelvin    Cal/Mol-Kelvin
 Total                  134.000             50.587            116.011
 Electronic               0.000              0.000              0.000
 Translational            0.889              2.981             41.710
 Rotational               0.889              2.981             32.370
 Vibrational            132.223             44.626             41.931
 Vibration     1          0.595              1.978              4.914
 Vibration     2          0.597              1.973              4.441
 Vibration     3          0.601              1.960              3.769
 Vibration     4          0.602              1.955              3.616
 Vibration     5          0.615              1.911              2.779
 Vibration     6          0.626              1.877              2.411
 Vibration     7          0.636              1.847              2.178
 Vibration     8          0.647              1.810              1.955
 Vibration     9          0.652              1.794              1.874
 Vibration    10          0.667              1.749              1.676
 Vibration    11          0.701              1.650              1.349
 Vibration    12          0.710              1.622              1.276
 Vibration    13          0.733              1.560              1.133
 Vibration    14          0.746              1.523              1.059
 Vibration    15          0.794              1.397              0.847
 Vibration    16          0.824              1.325              0.748
 Vibration    17          0.857              1.247              0.655
 Vibration    18          0.888              1.178              0.582
 Vibration    19          0.927              1.095              0.503
 Vibration    20          0.939              1.070              0.481
 Vibration    21          0.949              1.051              0.465
 Vibration    22          0.967              1.015              0.436

 Normal termination of Gaussian 09 at Thu Jun 20 14:46:16 2024.
