 Gaussian 09, Revision E.01,
 Gaussian 09:  ES64L-G09RevE.01 30-Nov-2015

 ----------------------------
 # opt freq m062x/6-31+g(d,p)
 ----------------------------

 ----------
 [No Title]
 ----------
 Symbolic Z-matrix:
 Charge =  1 Multiplicity = 1

 SCF Done:  E(RM062X) =  -688.067976700     A.U. after   15 cycles
 SCF Done:  E(RM062X) =  -688.068495543     A.U. after   13 cycles
 SCF Done:  E(RM062X) =  -688.068547656     A.U. after   12 cycles
 SCF Done:  E(RM062X) =  -688.068558027     A.U. after   11 cycles
 SCF Done:  E(RM062X) =  -688.068562685     A.U. after   11 cycles
 SCF Done:  E(RM062X) =  -688.068567721     A.U. after   11 cycles
 SCF Done:  E(RM062X) =  -688.068569657     A.U. after   11 cycles
 SCF Done:  E(RM062X) =  -688.068569986     A.U. after    9 cycles
 Optimization completed.
    -- Stationary point found.
 Normal termination of Gaussian 09 at Tue May 28 18:49:51 2024.

 ----------------------------------------------------------------------
 #N Geom=AllCheck Guess=TCheck SCRF=Check GenChk RM062X/6-31+G(d,p) Fre
 q
 ----------------------------------------------------------------------

 Structure from the checkpoint file:  "m062xFAyang.chk"
 ----------
 [No Title]
 ----------
 Charge =  1 Multiplicity = 1

                         Standard orientation:
 ---------------------------------------------------------------------
 Center     Atomic      Atomic             Coordinates (Angstroms)
 Number     Number       Type             X           Y           Z
 ---------------------------------------------------------------------
      1          6           0        1.476187   -2.026296   -0.023451
      2          6           0        2.510824   -1.081625   -0.010959
      3          6           0        2.223866    0.311730    0.003735
      4          6           0        0.916424    0.734659    0.007979
      5          6           0       -0.143429   -0.217482   -0.000728
      6          6           0        0.167061   -1.599366   -0.020243
      7          8           0        3.767408   -1.495782   -0.014799
      8          6           0       -1.472834    0.264563    0.006423
      9          6           0       -2.636451   -0.487367    0.021812
     10          6           0       -3.879863    0.132085    0.001132
     11          8           0       -4.952249   -0.618159    0.099909
     12          8           0       -3.983476    1.439002   -0.123605
     13          8           0        3.333988    1.081286    0.012488
     14          6           0        3.167183    2.495073    0.032105
     15          1           0        1.739440   -3.077726   -0.037746
     16          1           0        0.679084    1.793281    0.019416
     17          1           0       -0.626329   -2.338529   -0.033923
     18          1           0        4.371864   -0.734481   -0.005804
     19          1           0       -1.592205    1.347673   -0.000299
     20          1           0       -2.651378   -1.568913    0.050866
     21          1           0       -5.794951   -0.176855   -0.083964
     22          1           0       -4.856540    1.804868    0.081727
     23          1           0        4.170468    2.915455    0.038531
     24          1           0        2.631235    2.826823   -0.862983
     25          1           0        2.630142    2.801781    0.935411
 ---------------------------------------------------------------------

 SCF Done:  E(RM062X) =  -688.068569986     A.U. after    1 cycles

 The electronic state is 1-A.
 Alpha  occ. eigenvalues --  -19.88768 -19.88564 -19.81694 -19.81498 -10.89015
 Alpha  occ. eigenvalues --  -10.77234 -10.75442 -10.75090 -10.71993 -10.71452
 Alpha  occ. eigenvalues --  -10.70987 -10.70709 -10.70626 -10.69021  -1.44879
 Alpha  occ. eigenvalues --   -1.36559  -1.35073  -1.31903  -1.11703  -1.07663
 Alpha  occ. eigenvalues --   -1.01252  -0.99768  -0.94674  -0.92142  -0.88788
 Alpha  occ. eigenvalues --   -0.86780  -0.83320  -0.80223  -0.78216  -0.75898
 Alpha  occ. eigenvalues --   -0.73503  -0.72563  -0.71533  -0.69848  -0.68363
 Alpha  occ. eigenvalues --   -0.65861  -0.65059  -0.63750  -0.63553  -0.63038
 Alpha  occ. eigenvalues --   -0.62708  -0.61534  -0.59239  -0.58775  -0.57657
 Alpha  occ. eigenvalues --   -0.54608  -0.54093  -0.54054  -0.49590  -0.43923
 Alpha  occ. eigenvalues --   -0.39799
 Alpha virt. eigenvalues --   -0.22010  -0.14316  -0.10536  -0.10365  -0.09270
 Alpha virt. eigenvalues --   -0.08391  -0.07919  -0.07313  -0.06343  -0.06115
 Alpha virt. eigenvalues --   -0.04860  -0.04778  -0.03972  -0.03745  -0.03551

 Mulliken charges:
               1
     1  C    0.102269
     2  C   -0.048948
     3  C    0.330917
     4  C   -0.500781
     5  C    0.082317
     6  C   -0.160312
     7  O   -0.468767
     8  C    0.117664
     9  C   -0.608318
    10  C    0.918047
    11  O   -0.415516
    12  O   -0.464216
    13  O   -0.459380
    14  C   -0.151541
    15  H    0.208807
    16  H    0.172268
    17  H    0.170575
    18  H    0.429962
    19  H    0.193271
    20  H    0.196116
    21  H    0.405669
    22  H    0.410377
    23  H    0.196424
    24  H    0.171632
    25  H    0.171464
 Sum of Mulliken charges =   1.00000

 Dipole moment (field-independent basis, Debye):
    X=             -8.5413    Y=              3.6125    Z=              0.0643  Tot=              9.2740
 Quadrupole moment (field-independent basis, Debye-Ang):
   XX=              9.8146   YY=            -61.8270   ZZ=            -83.3421
   XY=             -3.0294   XZ=              0.3230   YZ=              1.0433

  Exact polarizability: 308.131 -19.743 131.188  -0.491   0.005  67.973
 Approx polarizability: 354.816 -33.380 165.814  -0.894  -0.277  88.877

                      1                      2                      3
                      A                      A                      A
 Frequencies --     46.8769                61.2559                90.1872
 Red. masses --      6.2258                 5.6147                 5.0826
 Frc consts  --      0.0081                 0.0124                 0.0244
 IR Inten    --      0.2462                 1.2382                 1.4639

                      4                      5                      6
                      A                      A                      A
 Frequencies --     93.4656               142.4420               177.0264
 Red. masses --      3.3910                 5.2772                 2.7879
 Frc consts  --      0.0175                 0.0631                 0.0515
 IR Inten    --      5.7532                 3.8628                15.6645

                      7                      8                      9
                      A                      A                      A
 Frequencies --    208.1886               233.6916               242.6649
 Red. masses --      3.7431                 6.4214                 1.3014
 Frc consts  --      0.0956                 0.2066                 0.0452
 IR Inten    --     14.7434                 9.6391                25.0981

                     10                     11                     12
                      A                      A                      A
 Frequencies --    283.3951               320.8365               327.2184
 Red. masses --      1.4133                 5.7087                 2.8325
 Frc consts  --      0.0669                 0.3462                 0.1787
 IR Inten    --     96.8013                 0.0679                27.0767

                     13                     14                     15
                      A                      A                      A
 Frequencies --    367.5180               373.9904               459.9219
 Red. masses --      4.7287                 1.9443                 1.1902
 Frc consts  --      0.3763                 0.1602                 0.1483
 IR Inten    --     12.9674                35.0461               268.7778

                     16                     17                     18
                      A                      A                      A
 Frequencies --    463.7399               501.3516               532.4018
 Red. masses --      3.1544                 5.6097                 5.4850
 Frc consts  --      0.3997                 0.8308                 0.9160
 IR Inten    --      5.5103                18.2151                17.2510

                     19                     20                     21
                      A                      A                      A
 Frequencies --    571.3574               572.7232               589.2918
 Red. masses --      3.6936                 3.1239                 3.1961
 Frc consts  --      0.7104                 0.6037                 0.6539
 IR Inten    --     48.0241                49.5479                17.6453

                     22                     23                     24
                      A                      A                      A
 Frequencies --    596.5406               637.8969               707.2310
 Red. masses --      1.3527                 4.3965                 5.1007
 Frc consts  --      0.2836                 1.0541                 1.5032
 IR Inten    --     76.8380                 7.7849                 2.8578

                     25                     26                     27
                      A                      A                      A
 Frequencies --    722.7813               788.4045               839.9161
 Red. masses --      5.7526                 5.5532                 2.0131
 Frc consts  --      1.7706                 2.0337                 0.8367
 IR Inten    --      1.6471                15.0875                 7.6212

                     28                     29                     30
                      A                      A                      A
 Frequencies --    840.1174               864.5459               889.6796
 Red. masses --      2.9303                 1.5641                 1.3473
 Frc consts  --      1.2185                 0.6888                 0.6283
 IR Inten    --      3.9968                57.0825                18.5874

                     31                     32                     33
                      A                      A                      A
 Frequencies --    974.7991               981.6756              1013.5377
 Red. masses --      3.2372                 1.3085                 1.3780
 Frc consts  --      1.8124                 0.7430                 0.8340
 IR Inten    --     66.5155                 2.8053                49.5018

                     34                     35                     36
                      A                      A                      A
 Frequencies --   1017.6207              1081.4037              1142.6793
 Red. masses --      4.3281                 3.8932                 1.1289
 Frc consts  --      2.6407                 2.6825                 0.8685
 IR Inten    --     94.4287                46.8142               172.5950

                     37                     38                     39
                      A                      A                      A
 Frequencies --   1156.5850              1172.5383              1184.7095
 Red. masses --      1.4631                 1.5305                 1.2709
 Frc consts  --      1.1532                 1.2398                 1.0509
 IR Inten    --    395.3076              1743.5750                 1.1855

                     40                     41                     42
                      A                      A                      A
 Frequencies --   1210.9174              1235.7915              1246.3477
 Red. masses --      1.4414                 1.3146                 1.4226
 Frc consts  --      1.2452                 1.1829                 1.3020
 IR Inten    --     32.9312               133.9787                23.8516

                     43                     44                     45
                      A                      A                      A
 Frequencies --   1291.8772              1314.4144              1349.3438
 Red. masses --      1.7681                 2.0494                 1.3819
 Frc consts  --      1.7386                 2.0861                 1.4824
 IR Inten    --     25.2475               162.0498               268.1303

                     46                     47                     48
                      A                      A                      A
 Frequencies --   1354.8699              1390.7505              1444.4369
 Red. masses --      2.6376                 3.9924                 3.1975
 Frc consts  --      2.8527                 4.5497                 3.9306
 IR Inten    --    166.9854               507.0186               364.8194

                     49                     50                     51
                      A                      A                      A
 Frequencies --   1487.9471              1500.6580              1506.0533
 Red. masses --      1.5260                 2.4121                 1.0419
 Frc consts  --      1.9906                 3.2005                 1.3924
 IR Inten    --     62.8624               230.6880                14.5618

                     52                     53                     54
                      A                      A                      A
 Frequencies --   1515.9814              1531.5485              1585.2830
 Red. masses --      1.1739                 5.6173                 4.2339
 Frc consts  --      1.5896                 7.7632                 6.2691
 IR Inten    --     91.0054               311.2498              1581.2231

                     55                     56                     57
                      A                      A                      A
 Frequencies --   1628.9941              1644.1530              1654.4617
 Red. masses --      4.4871                 4.7056                 5.6064
 Frc consts  --      7.0154                 7.4945                 9.0416
 IR Inten    --   1292.1267                24.7702               446.7058

                     58                     59                     60
                      A                      A                      A
 Frequencies --   1705.4299              3068.9397              3149.9046
 Red. masses --      6.1636                 1.0326                 1.1077
 Frc consts  --     10.5622                 5.7301                 6.4752
 IR Inten    --    238.0330                22.3504                17.9968

                     61                     62                     63
                      A                      A                      A
 Frequencies --   3195.8275              3209.3770              3225.4608
 Red. masses --      1.0907                 1.1038                 1.0913
 Frc consts  --      6.5634                 6.6988                 6.6891
 IR Inten    --      0.3718                 3.6475                 0.6124

                     64                     65                     66
                      A                      A                      A
 Frequencies --   3236.8699              3256.3395              3258.6827
 Red. masses --      1.0917                 1.0926                 1.0945
 Frc consts  --      6.7389                 6.8263                 6.8476
 IR Inten    --      2.1591                 0.2831                 6.0824

                     67                     68                     69
                      A                      A                      A
 Frequencies --   3786.7740              3826.7675              3838.9096
 Red. masses --      1.0652                 1.0682                 1.0665
 Frc consts  --      8.9994                 9.2165                 9.2607
 IR Inten    --    423.5662                72.0136               810.9944

 - Thermochemistry -
 -------------------
 Temperature   298.150 Kelvin.  Pressure   1.00000 Atm.
 Atom     1 has atomic number  6 and mass  12.00000

 Molecular mass:   195.06573 amu.
 Principal axes and moments of inertia in atomic units:
                           1         2         3
     Eigenvalues --  1168.864626275.481187429.38565
           X            0.99994   0.01065   0.00016
           Y           -0.01065   0.99994   0.00189
           Z           -0.00014  -0.00189   1.00000
 This molecule is an asymmetric top.
 Rotational symmetry number  1.
 Warning -- assumption of classical behavior for rotation
           may cause significant error
 Rotational temperatures (Kelvin)      0.07410     0.01380     0.01166
 Rotational constants (GHZ):           1.54401     0.28759     0.24292
 Zero-point vibrational energy     525910.2 (Joules/Mol)
                                  125.69555 (Kcal/Mol)
 Warning -- explicit consideration of  22 degrees of freedom as
           vibrations may cause significant error
 Vibrational temperatures:     67.45    88.13   129.76   134.48   204.94
          (Kelvin)            254.70   299.54   336.23   349.14   407.74
                              461.61   470.79   528.78   538.09   661.72
                              667.22   721.33   766.01   822.05   824.02
                              847.86   858.29   917.79  1017.55  1039.92
                             1134.34  1208.45  1208.74  1243.89  1280.05
                             1402.52  1412.41  1458.25  1464.13  1555.90
                             1644.06  1664.07  1687.02  1704.53  1742.24
                             1778.03  1793.21  1858.72  1891.15  1941.40
                             1949.35  2000.98  2078.22  2140.82  2159.11
                             2166.87  2181.16  2203.55  2280.87  2343.76
                             2365.57  2380.40  2453.73  4415.51  4532.00
                             4598.08  4617.57  4640.71  4657.13  4685.14
                             4688.51  5448.32  5505.86  5523.33

 Zero-point correction=                           0.200309 (Hartree/Particle)
 Thermal correction to Energy=                    0.213696
 Thermal correction to Enthalpy=                  0.214640
 Thermal correction to Gibbs Free Energy=         0.159883
 Sum of electronic and zero-point Energies=           -687.868261
 Sum of electronic and thermal Energies=              -687.854874
 Sum of electronic and thermal Enthalpies=            -687.853930
 Sum of electronic and thermal Free Energies=         -687.908687

                     E (Thermal)             CV                S
                      KCal/Mol        Cal/Mol-Kelvin    Cal/Mol-Kelvin
 Total                  134.096             50.486            115.246
 Electronic               0.000              0.000              0.000
 Translational            0.889              2.981             41.710
 Rotational               0.889              2.981             32.366
 Vibrational            132.319             44.524             41.170
 Vibration     1          0.595              1.979              4.945
 Vibration     2          0.597              1.973              4.416
 Vibration     3          0.602              1.956              3.656
 Vibration     4          0.602              1.954              3.586
 Vibration     5          0.616              1.911              2.771
 Vibration     6          0.628              1.871              2.360
 Vibration     7          0.642              1.828              2.060
 Vibration     8          0.654              1.789              1.850
 Vibration     9          0.659              1.775              1.783
 Vibration    10          0.682              1.704              1.513
 Vibration    11          0.706              1.634              1.306
 Vibration    12          0.711              1.621              1.274
 Vibration    13          0.740              1.539              1.090
 Vibration    14          0.745              1.525              1.063
 Vibration    15          0.818              1.339              0.766
 Vibration    16          0.821              1.330              0.755
 Vibration    17          0.857              1.247              0.655
 Vibration    18          0.887              1.178              0.582
 Vibration    19          0.928              1.093              0.502
 Vibration    20          0.929              1.090              0.499
 Vibration    21          0.947              1.055              0.468
 Vibration    22          0.954              1.039              0.456

 Normal termination of Gaussian 09 at Tue May 28 18:55:46 2024.
