 Gaussian 09, Revision E.01,
 Gaussian 09:  ES64L-G09RevE.01 30-Nov-2015

 ----------------------------
 # opt freq m062x/6-31+g(d,p)
 ----------------------------

 ----------
 [No Title]
 ----------
 Symbolic Z-matrix:
 Charge =  0 Multiplicity = 1

 SCF Done:  E(RM062X) =  -687.717188924     A.U. after   16 cycles
 SCF Done:  E(RM062X) =  -687.717731511     A.U. after   13 cycles
 SCF Done:  E(RM062X) =  -687.717793074     A.U. after   11 cycles
 SCF Done:  E(RM062X) =  -687.717803971     A.U. after   11 cycles
 SCF Done:  E(RM062X) =  -687.717803427     A.U. after   10 cycles
 SCF Done:  E(RM062X) =  -687.717804408     A.U. after   10 cycles
 Optimization completed.
    -- Stationary point found.
 Normal termination of Gaussian 09 at Tue May 28 19:01:31 2024.

 ----------------------------------------------------------------------
 #N Geom=AllCheck Guess=TCheck SCRF=Check GenChk RM062X/6-31+G(d,p) Fre
 q
 ----------------------------------------------------------------------

 Structure from the checkpoint file:  "m062xFA.chk"
 ----------
 [No Title]
 ----------
 Charge =  0 Multiplicity = 1

                         Standard orientation:
 ---------------------------------------------------------------------
 Center     Atomic      Atomic             Coordinates (Angstroms)
 Number     Number       Type             X           Y           Z
 ---------------------------------------------------------------------
      1          6           0        1.461569   -2.010146   -0.000168
      2          6           0        2.491095   -1.077726   -0.000128
      3          6           0        2.187544    0.295350   -0.000070
      4          6           0        0.866729    0.714661   -0.000055
      5          6           0       -0.180238   -0.225867   -0.000090
      6          6           0        0.136485   -1.588125   -0.000146
      7          8           0        3.777878   -1.489933   -0.000145
      8          6           0       -1.558715    0.275045   -0.000062
      9          6           0       -2.684758   -0.453210    0.000008
     10          8           0        3.287663    1.103585   -0.000039
     11          6           0        3.076289    2.503047    0.000297
     12          6           0       -4.073701    0.075293    0.000071
     13          8           0       -5.029872   -0.657276    0.001000
     14          8           0       -4.260819    1.415901   -0.000480
     15          1           0        1.719071   -3.063690   -0.000209
     16          1           0        0.629582    1.773669   -0.000008
     17          1           0       -0.651351   -2.333479   -0.000174
     18          1           0        4.353009   -0.711143   -0.000087
     19          1           0       -1.618491    1.365414   -0.000039
     20          1           0       -2.661922   -1.537624    0.000148
     21          1           0        4.065242    2.959237    0.000412
     22          1           0        2.527951    2.813499   -0.896240
     23          1           0        2.527935    2.813066    0.896974
     24          1           0       -3.423623    1.892910   -0.001407
 ---------------------------------------------------------------------

 SCF Done:  E(RM062X) =  -687.717804408     A.U. after    1 cycles

 The electronic state is 1-A.
 Alpha  occ. eigenvalues --  -19.71125 -19.69413 -19.69270 -19.63409 -10.69090
 Alpha  occ. eigenvalues --  -10.63778 -10.63649 -10.62990 -10.60150 -10.58631
 Alpha  occ. eigenvalues --  -10.58411 -10.57950 -10.57593 -10.57203  -1.23389
 Alpha  occ. eigenvalues --   -1.23320  -1.19931  -1.14384  -0.99023  -0.92566
 Alpha  occ. eigenvalues --   -0.87927  -0.86317  -0.81892  -0.76188  -0.71970
 Alpha  occ. eigenvalues --   -0.71097  -0.68318  -0.66138  -0.63003  -0.60636
 Alpha  occ. eigenvalues --   -0.59107  -0.58186  -0.55582  -0.54030  -0.53287
 Alpha  occ. eigenvalues --   -0.52911  -0.51957  -0.51339  -0.50535  -0.47351
 Alpha  occ. eigenvalues --   -0.47203  -0.45421  -0.45183  -0.43969  -0.43151
 Alpha  occ. eigenvalues --   -0.42606  -0.39612  -0.36405  -0.35545  -0.31872
 Alpha  occ. eigenvalues --   -0.27576
 Alpha virt. eigenvalues --   -0.04652  -0.00691   0.00352   0.00547   0.01623
 Alpha virt. eigenvalues --    0.02128   0.03196   0.03859   0.04724   0.04757
 Alpha virt. eigenvalues --    0.05718   0.05763   0.06349   0.07658   0.07677

 Mulliken charges:
               1
     1  C    0.150473
     2  C   -0.062260
     3  C    0.310763
     4  C   -0.703615
     5  C    0.113848
     6  C   -0.230889
     7  O   -0.528810
     8  C   -0.111422
     9  C    0.260059
    10  O   -0.466877
    11  C   -0.158191
    12  C    0.318724
    13  O   -0.439901
    14  O   -0.439489
    15  H    0.176891
    16  H    0.141551
    17  H    0.152691
    18  H    0.409121
    19  H    0.099398
    20  H    0.165622
    21  H    0.172019
    22  H    0.161257
    23  H    0.161262
    24  H    0.347774
 Sum of Mulliken charges =  -0.00000

 Dipole moment (field-independent basis, Debye):
    X=              6.3568    Y=              3.8046    Z=             -0.0025  Tot=              7.4084
 Quadrupole moment (field-independent basis, Debye-Ang):
   XX=           -114.7320   YY=            -70.7979   ZZ=            -85.2970
   XY=              5.7842   XZ=              0.0148   YZ=             -0.0008

  Exact polarizability: 218.387   6.404 135.892  -0.008  -0.004  71.992
 Approx polarizability: 243.784  10.573 172.662  -0.014  -0.009  93.352

 ******    2 imaginary frequencies (negative Signs) ******

                      1                      2                      3
                      A                      A                      A
 Frequencies --   -131.9785               -30.8100                68.2838
 Red. masses --      1.8221                 4.7198                 5.1222
 Frc consts  --      0.0187                 0.0026                 0.0141
 IR Inten    --     26.8642                 4.7782                 4.9273

                      4                      5                      6
                      A                      A                      A
 Frequencies --     80.8774                90.3390               168.6107
 Red. masses --      3.7849                 6.1945                 4.9987
 Frc consts  --      0.0146                 0.0298                 0.0837
 IR Inten    --      1.2227                 3.7216                 0.8457

                      7                      8                      9
                      A                      A                      A
 Frequencies --    216.8417               228.2708               240.5177
 Red. masses --      4.1412                 2.4519                 7.4372
 Frc consts  --      0.1147                 0.0753                 0.2535
 IR Inten    --      4.5784                 0.0400                 6.2831

                     10                     11                     12
                      A                      A                      A
 Frequencies --    307.0625               316.6129               332.1226
 Red. masses --      1.3673                 6.2313                 1.5622
 Frc consts  --      0.0760                 0.3680                 0.1015
 IR Inten    --      0.6978                 6.6853                60.3237

                     13                     14                     15
                      A                      A                      A
 Frequencies --    371.8480               375.0435               431.6075
 Red. masses --      3.0951                 4.6686                 1.0993
 Frc consts  --      0.2522                 0.3869                 0.1207
 IR Inten    --     19.5006                 4.0818               120.2788

                     16                     17                     18
                      A                      A                      A
 Frequencies --    464.0125               491.8476               530.8322
 Red. masses --      3.1281                 5.1323                 5.9594
 Frc consts  --      0.3968                 0.7315                 0.9894
 IR Inten    --      0.5290                 0.4055                 2.3897

                     19                     20                     21
                      A                      A                      A
 Frequencies --    580.9461               581.9244               588.5551
 Red. masses --      4.1087                 3.7144                 7.2746
 Frc consts  --      0.8170                 0.7411                 1.4847
 IR Inten    --      8.5784                10.6603                27.9742

                     22                     23                     24
                      A                      A                      A
 Frequencies --    661.9339               704.1764               730.3020
 Red. masses --      5.5376                 5.1305                 4.6660
 Frc consts  --      1.4296                 1.4989                 1.4662
 IR Inten    --      4.8469                 0.0013                 0.2889

                     25                     26                     27
                      A                      A                      A
 Frequencies --    785.3160               833.8426               838.1818
 Red. masses --      5.7277                 5.3619                 1.4760
 Frc consts  --      2.0812                 2.1965                 0.6110
 IR Inten    --      8.1089                15.1397                26.4567

                     28                     29                     30
                      A                      A                      A
 Frequencies --    864.9796               897.0262               940.4939
 Red. masses --      1.6790                 1.8709                 5.1399
 Frc consts  --      0.7401                 0.8870                 2.6787
 IR Inten    --     25.1760                 1.0636                33.2401

                     31                     32                     33
                      A                      A                      A
 Frequencies --    964.7951               975.8085               996.0763
 Red. masses --      1.3184                 3.4028                 1.1203
 Frc consts  --      0.7231                 1.9090                 0.6549
 IR Inten    --      9.6358                 7.1056                42.5091

                     34                     35                     36
                      A                      A                      A
 Frequencies --   1096.1454              1157.5220              1186.2146
 Red. masses --      3.4825                 1.4003                 1.2746
 Frc consts  --      2.4654                 1.1054                 1.0567
 IR Inten    --     26.9168                30.5062                 1.0387

                     37                     38                     39
                      A                      A                      A
 Frequencies --   1190.1575              1211.8582              1231.8398
 Red. masses --      1.4274                 1.6434                 1.6593
 Frc consts  --      1.1912                 1.4220                 1.4835
 IR Inten    --     44.5129                21.7190               163.1950

                     40                     41                     42
                      A                      A                      A
 Frequencies --   1241.9405              1279.2488              1313.8648
 Red. masses --      1.3510                 2.2272                 1.7300
 Frc consts  --      1.2277                 2.1474                 1.7596
 IR Inten    --     60.0211                72.4278                37.3660

                     43                     44                     45
                      A                      A                      A
 Frequencies --   1321.3313              1340.1784              1366.4430
 Red. masses --      2.2593                 2.3429                 4.4857
 Frc consts  --      2.3241                 2.4793                 4.9347
 IR Inten    --    106.1154               590.7088               195.2409

                     46                     47                     48
                      A                      A                      A
 Frequencies --   1377.8749              1429.4981              1483.7655
 Red. masses --      1.5306                 2.6428                 1.8966
 Frc consts  --      1.7121                 3.1819                 2.4602
 IR Inten    --     81.0098                74.6602                10.5198

                     49                     50                     51
                      A                      A                      A
 Frequencies --   1503.7304              1508.2945              1524.9562
 Red. masses --      1.7457                 1.0414                 1.1038
 Frc consts  --      2.3258                 1.3958                 1.5124
 IR Inten    --     21.1996                10.2926                45.5901

                     52                     53                     54
                      A                      A                      A
 Frequencies --   1589.0794              1677.6233              1696.0505
 Red. masses --      4.0075                 6.4367                 6.8569
 Frc consts  --      5.9623                10.6735                11.6213
 IR Inten    --    324.1344               150.6526                47.4283

                     55                     56                     57
                      A                      A                      A
 Frequencies --   1737.1918              1880.5476              3057.7626
 Red. masses --      5.9780                10.4177                 1.0327
 Frc consts  --     10.6291                21.7066                 5.6889
 IR Inten    --     60.3410               577.0801                39.1630

                     58                     59                     60
                      A                      A                      A
 Frequencies --   3131.5927              3137.2157              3188.0821
 Red. masses --      1.1064                 1.0886                 1.1031
 Frc consts  --      6.3931                 6.3125                 6.6058
 IR Inten    --     28.0125                31.6701                14.0153

                     61                     62                     63
                      A                      A                      A
 Frequencies --   3213.3126              3225.7197              3228.7850
 Red. masses --      1.0909                 1.0904                 1.0900
 Frc consts  --      6.6366                 6.6851                 6.6950
 IR Inten    --      3.9339                 4.0126                 2.1794

                     64                     65                     66
                      A                      A                      A
 Frequencies --   3244.5574              3849.5457              3906.4378
 Red. masses --      1.0946                 1.0652                 1.0655
 Frc consts  --      6.7891                 9.3007                 9.5803
 IR Inten    --      2.3254               176.8681                33.2602

 - Thermochemistry -
 -------------------
 Temperature   298.150 Kelvin.  Pressure   1.00000 Atm.
 Atom     1 has atomic number  6 and mass  12.00000

 Molecular mass:   194.05791 amu.
 Principal axes and moments of inertia in atomic units:
                           1         2         3
     Eigenvalues --  1162.765346311.041247462.23339
           X            0.99994   0.01110   0.00003
           Y           -0.01110   0.99994   0.00000
           Z           -0.00003  -0.00000   1.00000
 This molecule is an asymmetric top.
 Rotational symmetry number  1.
 Warning -- assumption of classical behavior for rotation
           may cause significant error
 Rotational temperatures (Kelvin)      0.07449     0.01372     0.01161
 Rotational constants (GHZ):           1.55211     0.28597     0.24185
    2 imaginary frequencies ignored.
 Zero-point vibrational energy     491590.1 (Joules/Mol)
                                  117.49287 (Kcal/Mol)
 Warning -- explicit consideration of  19 degrees of freedom as
           vibrations may cause significant error
 Vibrational temperatures:     98.25   116.36   129.98   242.59   311.99
          (Kelvin)            328.43   346.05   441.79   455.53   477.85
                              535.01   539.60   620.99   667.61   707.66
                              763.75   835.85   837.26   846.80   952.37
                             1013.15  1050.74  1129.89  1199.71  1205.96
                             1244.51  1290.62  1353.16  1388.12  1403.97
                             1433.13  1577.11  1665.41  1706.70  1712.37
                             1743.59  1772.34  1786.87  1840.55  1890.36
                             1901.10  1928.22  1966.00  1982.45  2056.73
                             2134.80  2163.53  2170.10  2194.07  2286.33
                             2413.72  2440.24  2499.43  2705.69  4399.43
                             4505.66  4513.75  4586.93  4623.23  4641.09
                             4645.50  4668.19  5538.63  5620.49

 Zero-point correction=                           0.187237 (Hartree/Particle)
 Thermal correction to Energy=                    0.198957
 Thermal correction to Enthalpy=                  0.199901
 Thermal correction to Gibbs Free Energy=         0.149021
 Sum of electronic and zero-point Energies=           -687.530568
 Sum of electronic and thermal Energies=              -687.518848
 Sum of electronic and thermal Enthalpies=            -687.517903
 Sum of electronic and thermal Free Energies=         -687.568783

                     E (Thermal)             CV                S
                      KCal/Mol        Cal/Mol-Kelvin    Cal/Mol-Kelvin
 Total                  124.847             45.410            107.086
 Electronic               0.000              0.000              0.000
 Translational            0.889              2.981             41.694
 Rotational               0.889              2.981             32.371
 Vibrational            123.070             39.448             33.021
 Vibration     1          0.598              1.969              4.202
 Vibration     2          0.600              1.962              3.869
 Vibration     3          0.602              1.956              3.653
 Vibration     4          0.625              1.881              2.451
 Vibration     5          0.646              1.815              1.985
 Vibration     6          0.651              1.798              1.893
 Vibration     7          0.658              1.778              1.799
 Vibration     8          0.697              1.660              1.378
 Vibration     9          0.703              1.642              1.328
 Vibration    10          0.714              1.611              1.250
 Vibration    11          0.744              1.530              1.072
 Vibration    12          0.746              1.523              1.059
 Vibration    13          0.793              1.401              0.853
 Vibration    14          0.822              1.330              0.755
 Vibration    15          0.848              1.268              0.679
 Vibration    16          0.886              1.182              0.585
 Vibration    17          0.938              1.073              0.484
 Vibration    18          0.939              1.070              0.482
 Vibration    19          0.946              1.056              0.470

 Normal termination of Gaussian 09 at Tue May 28 19:06:40 2024.
