 Gaussian 09, Revision E.01,
 Gaussian 09:  ES64L-G09RevE.01 30-Nov-2015

 -----------------------------
 # opt freq pbepbe/6-31+g(d,p)
 -----------------------------

 ----------
 [No Title]
 ----------
 Symbolic Z-matrix:
 Charge =  1 Multiplicity = 1

 SCF Done:  E(RPBE-PBE) =  -687.570170658     A.U. after   18 cycles
 SCF Done:  E(RPBE-PBE) =  -687.571560911     A.U. after   13 cycles
 SCF Done:  E(RPBE-PBE) =  -687.571589162     A.U. after   12 cycles
 SCF Done:  E(RPBE-PBE) =  -687.571590939     A.U. after   11 cycles
 Optimization completed.
    -- Stationary point found.
 Normal termination of Gaussian 09 at Tue May 28 18:17:34 2024.

 ----------------------------------------------------------------------
 #N Geom=AllCheck Guess=TCheck SCRF=Check GenChk RPBEPBE/6-31+G(d,p) Fr
 eq
 ----------------------------------------------------------------------

 Structure from the checkpoint file:  "pbeFAyang.chk"
 ----------
 [No Title]
 ----------
 Charge =  1 Multiplicity = 1

                         Standard orientation:
 ---------------------------------------------------------------------
 Center     Atomic      Atomic             Coordinates (Angstroms)
 Number     Number       Type             X           Y           Z
 ---------------------------------------------------------------------
      1          6           0        1.479623   -2.038999   -0.025800
      2          6           0        2.528617   -1.094068   -0.012876
      3          6           0        2.244192    0.311477    0.005434
      4          6           0        0.926482    0.742753    0.012328
      5          6           0       -0.147043   -0.208481    0.001947
      6          6           0        0.164745   -1.604110   -0.020004
      7          8           0        3.795155   -1.521577   -0.019415
      8          6           0       -1.480661    0.284006    0.010966
      9          6           0       -2.659100   -0.464563    0.017754
     10          6           0       -3.920037    0.136853   -0.000004
     11          8           0       -4.992038   -0.648021    0.115870
     12          8           0       -4.045753    1.459721   -0.141767
     13          8           0        3.369821    1.075550    0.014352
     14          6           0        3.226414    2.509333    0.033524
     15          1           0        1.736122   -3.101012   -0.042156
     16          1           0        0.691371    1.809884    0.026756
     17          1           0       -0.636049   -2.346886   -0.033104
     18          1           0        4.392521   -0.738690   -0.009437
     19          1           0       -1.592459    1.375532    0.012377
     20          1           0       -2.665082   -1.555765    0.038064
     21          1           0       -5.835670   -0.208995   -0.117988
     22          1           0       -4.925749    1.800546    0.118720
     23          1           0        4.248627    2.907017    0.037125
     24          1           0        2.693253    2.855926   -0.868145
     25          1           0        2.696238    2.831851    0.945842
 ---------------------------------------------------------------------

 SCF Done:  E(RPBE-PBE) =  -687.571590939     A.U. after    1 cycles

 The electronic state is 1-A.
 Alpha  occ. eigenvalues --  -19.01239 -19.01131 -18.96251 -18.95946 -10.21452
 Alpha  occ. eigenvalues --  -10.12204 -10.10888 -10.08798 -10.07686 -10.06818
 Alpha  occ. eigenvalues --  -10.06770 -10.05833 -10.05740 -10.04904  -1.21278
 Alpha  occ. eigenvalues --   -1.14234  -1.14009  -1.11144  -0.92960  -0.89329
 Alpha  occ. eigenvalues --   -0.84114  -0.82899  -0.78523  -0.76423  -0.73508
 Alpha  occ. eigenvalues --   -0.71719  -0.68891  -0.66225  -0.64461  -0.61480
 Alpha  occ. eigenvalues --   -0.59745  -0.58290  -0.58019  -0.56820  -0.55083
 Alpha  occ. eigenvalues --   -0.53927  -0.53206  -0.51743  -0.50823  -0.50600
 Alpha  occ. eigenvalues --   -0.49639  -0.48369  -0.47627  -0.47278  -0.46499
 Alpha  occ. eigenvalues --   -0.44054  -0.43332  -0.43273  -0.40138  -0.35921
 Alpha  occ. eigenvalues --   -0.32980
 Alpha virt. eigenvalues --   -0.26681  -0.18008  -0.17322  -0.17139  -0.12456
 Alpha virt. eigenvalues --   -0.12185  -0.11485  -0.11271  -0.10867  -0.09090
 Alpha virt. eigenvalues --   -0.07696  -0.07643  -0.07130  -0.06592  -0.06035

 Mulliken charges:
               1
     1  C    0.083643
     2  C   -0.323939
     3  C    0.274885
     4  C   -0.233554
     5  C    0.312723
     6  C   -0.310675
     7  O   -0.391635
     8  C    0.136199
     9  C   -0.666879
    10  C    0.854322
    11  O   -0.363124
    12  O   -0.410090
    13  O   -0.368175
    14  C   -0.193716
    15  H    0.190194
    16  H    0.157600
    17  H    0.156303
    18  H    0.403693
    19  H    0.176252
    20  H    0.177849
    21  H    0.382191
    22  H    0.383956
    23  H    0.200149
    24  H    0.185955
    25  H    0.185871
 Sum of Mulliken charges =   1.00000

 Dipole moment (field-independent basis, Debye):
    X=             -7.0585    Y=              3.3442    Z=              0.0707  Tot=              7.8109
 Quadrupole moment (field-independent basis, Debye-Ang):
   XX=             10.2402   YY=            -61.4836   ZZ=            -83.1277
   XY=             -2.0233   XZ=              0.3409   YZ=              1.2668

  Exact polarizability: 331.643 -18.930 140.534  -0.510   0.058  70.979
 Approx polarizability: 991.772-141.568 287.725  -2.945  -0.331 117.630

                      1                      2                      3
                      A                      A                      A
 Frequencies --     48.2202                59.6886                81.8764
 Red. masses --      6.4685                 5.8406                 5.1807
 Frc consts  --      0.0089                 0.0123                 0.0205
 IR Inten    --      0.4315                 2.0978                 0.9607

                      4                      5                      6
                      A                      A                      A
 Frequencies --     97.8526               143.4155               173.1389
 Red. masses --      3.2663                 5.1475                 2.2944
 Frc consts  --      0.0184                 0.0624                 0.0405
 IR Inten    --      5.3222                 1.3121                15.7986

                      7                      8                      9
                      A                      A                      A
 Frequencies --    185.8145               219.4954               221.4975
 Red. masses --      3.5821                 5.3916                 1.3749
 Frc consts  --      0.0729                 0.1530                 0.0397
 IR Inten    --      7.2237                 9.8247                20.3840

                     10                     11                     12
                      A                      A                      A
 Frequencies --    265.8764               297.7621               316.9435
 Red. masses --      1.4868                 5.2655                 3.0394
 Frc consts  --      0.0619                 0.2751                 0.1799
 IR Inten    --    125.9930                 0.3372                23.8465

                     13                     14                     15
                      A                      A                      A
 Frequencies --    342.1796               360.1604               408.2326
 Red. masses --      4.6791                 2.0509                 1.1962
 Frc consts  --      0.3228                 0.1567                 0.1175
 IR Inten    --     11.3253                34.5453               234.2280

                     16                     17                     18
                      A                      A                      A
 Frequencies --    443.1504               481.5932               510.0486
 Red. masses --      3.1967                 5.7380                 5.2684
 Frc consts  --      0.3699                 0.7841                 0.8075
 IR Inten    --      0.4081                 6.7429                 8.9592

                     19                     20                     21
                      A                      A                      A
 Frequencies --    545.1749               562.1532               568.3577
 Red. masses --      4.5311                 3.1435                 3.5380
 Frc consts  --      0.7935                 0.5853                 0.6734
 IR Inten    --     32.0957                18.8683                16.4408

                     22                     23                     24
                      A                      A                      A
 Frequencies --    606.7620               611.2962               656.1514
 Red. masses --      1.2246                 4.2062                 5.1856
 Frc consts  --      0.2656                 0.9261                 1.3154
 IR Inten    --     89.8679                 7.9781                 4.5805

                     25                     26                     27
                      A                      A                      A
 Frequencies --    697.6858               757.8616               797.3506
 Red. masses --      5.0609                 5.6743                 1.5689
 Frc consts  --      1.4514                 1.9202                 0.5877
 IR Inten    --      0.5837                15.0214                 3.6968

                     28                     29                     30
                      A                      A                      A
 Frequencies --    806.7869               825.1257               839.2453
 Red. masses --      5.2952                 1.4529                 1.5213
 Frc consts  --      2.0307                 0.5828                 0.6313
 IR Inten    --      1.8407                56.1838                 3.0656

                     31                     32                     33
                      A                      A                      A
 Frequencies --    929.2245               929.8210               954.9223
 Red. masses --      1.6264                 2.3068                 2.9813
 Frc consts  --      0.8274                 1.1751                 1.6017
 IR Inten    --     17.3380                34.1481               101.9230

                     34                     35                     36
                      A                      A                      A
 Frequencies --    958.4599              1012.4070              1113.2805
 Red. masses --      1.5754                 4.3118                 1.1514
 Frc consts  --      0.8527                 2.6039                 0.8408
 IR Inten    --     34.9515                55.2894               165.4019

                     37                     38                     39
                      A                      A                      A
 Frequencies --   1116.7096              1129.6081              1136.5441
 Red. masses --      1.5636                 1.2669                 1.4861
 Frc consts  --      1.1489                 0.9525                 1.1310
 IR Inten    --     51.9059                 0.3388               848.8978

                     40                     41                     42
                      A                      A                      A
 Frequencies --   1158.1202              1187.2440              1193.7071
 Red. masses --      1.3474                 1.3036                 1.4999
 Frc consts  --      1.0647                 1.0826                 1.2592
 IR Inten    --     24.1556               145.7628                62.9387

                     43                     44                     45
                      A                      A                      A
 Frequencies --   1234.4343              1268.5387              1295.1313
 Red. masses --      1.8699                 1.8216                 2.3216
 Frc consts  --      1.6788                 1.7271                 2.2944
 IR Inten    --     22.8930                53.3139                71.5375

                     46                     47                     48
                      A                      A                      A
 Frequencies --   1307.1768              1338.4051              1398.4128
 Red. masses --      1.4211                 3.9308                 3.5043
 Frc consts  --      1.4307                 4.1486                 4.0376
 IR Inten    --    175.6992               311.2337               142.5868

                     49                     50                     51
                      A                      A                      A
 Frequencies --   1426.5096              1430.3632              1447.4320
 Red. masses --      2.3660                 1.8658                 1.0441
 Frc consts  --      2.8367                 2.2491                 1.2888
 IR Inten    --    178.9213                96.8122                15.0331

                     52                     53                     54
                      A                      A                      A
 Frequencies --   1449.0455              1462.8858              1521.4892
 Red. masses --      1.2378                 2.6954                 4.4159
 Frc consts  --      1.5314                 3.3985                 6.0230
 IR Inten    --     69.4114                 6.1373               537.0937

                     55                     56                     57
                      A                      A                      A
 Frequencies --   1557.1858              1567.3157              1600.6829
 Red. masses --      4.9045                 4.6820                 5.2600
 Frc consts  --      7.0069                 6.7763                 7.9404
 IR Inten    --    202.4547                18.9606              1108.8927

                     58                     59                     60
                      A                      A                      A
 Frequencies --   1638.1930              2974.3899              3056.2359
 Red. masses --      5.6949                 1.0327                 1.1079
 Frc consts  --      9.0046                 5.3831                 6.0973
 IR Inten    --    482.2194                24.7070                15.1854

                     61                     62                     63
                      A                      A                      A
 Frequencies --   3105.8415              3122.1127              3147.9511
 Red. masses --      1.0894                 1.1022                 1.0905
 Frc consts  --      6.1914                 6.3300                 6.3667
 IR Inten    --      0.6716                 2.7317                 1.8722

                     64                     65                     66
                      A                      A                      A
 Frequencies --   3149.0537              3162.8885              3168.7964
 Red. masses --      1.0882                 1.0956                 1.0903
 Frc consts  --      6.3581                 6.4576                 6.4503
 IR Inten    --      1.5988                 0.5921                 1.2387

                     67                     68                     69
                      A                      A                      A
 Frequencies --   3578.9742              3665.2790              3673.7079
 Red. masses --      1.0650                 1.0677                 1.0658
 Frc consts  --      8.0371                 8.4511                 8.4751
 IR Inten    --    314.3840                73.2799               525.4660

 - Thermochemistry -
 -------------------
 Temperature   298.150 Kelvin.  Pressure   1.00000 Atm.
 Atom     1 has atomic number  6 and mass  12.00000

 Molecular mass:   195.06573 amu.
 Principal axes and moments of inertia in atomic units:
                           1         2         3
     Eigenvalues --  1187.834786407.743947579.32685
           X            0.99994   0.01093   0.00017
           Y           -0.01093   0.99994   0.00233
           Z           -0.00015  -0.00233   1.00000
 This molecule is an asymmetric top.
 Rotational symmetry number  1.
 Warning -- assumption of classical behavior for rotation
           may cause significant error
 Rotational temperatures (Kelvin)      0.07292     0.01352     0.01143
 Rotational constants (GHZ):           1.51935     0.28165     0.23811
 Zero-point vibrational energy     505418.5 (Joules/Mol)
                                  120.79792 (Kcal/Mol)
 Warning -- explicit consideration of  23 degrees of freedom as
           vibrations may cause significant error
 Vibrational temperatures:     69.38    85.88   117.80   140.79   206.34
          (Kelvin)            249.11   267.35   315.80   318.69   382.54
                              428.41   456.01   492.32   518.19   587.35
                              637.59   692.90   733.85   784.38   808.81
                              817.74   872.99   879.52   944.05  1003.81
                             1090.39  1147.21  1160.78  1187.17  1207.49
                             1336.95  1337.80  1373.92  1379.01  1456.63
                             1601.76  1606.69  1625.25  1635.23  1666.27
                             1708.18  1717.48  1776.07  1825.14  1863.40
                             1880.73  1925.66  2012.00  2052.43  2057.97
                             2082.53  2084.85  2104.76  2189.08  2240.44
                             2255.01  2303.02  2356.99  4279.48  4397.24
                             4468.61  4492.02  4529.19  4530.78  4550.69
                             4559.19  5149.34  5273.51  5285.64

 Zero-point correction=                           0.192504 (Hartree/Particle)
 Thermal correction to Energy=                    0.206407
 Thermal correction to Enthalpy=                  0.207351
 Thermal correction to Gibbs Free Energy=         0.151616
 Sum of electronic and zero-point Energies=           -687.379087
 Sum of electronic and thermal Energies=              -687.365184
 Sum of electronic and thermal Enthalpies=            -687.364240
 Sum of electronic and thermal Free Energies=         -687.419975

                     E (Thermal)             CV                S
                      KCal/Mol        Cal/Mol-Kelvin    Cal/Mol-Kelvin
 Total                  129.522             52.453            117.304
 Electronic               0.000              0.000              0.000
 Translational            0.889              2.981             41.710
 Rotational               0.889              2.981             32.423
 Vibrational            127.745             46.491             43.172
 Vibration     1          0.595              1.978              4.889
 Vibration     2          0.597              1.974              4.467
 Vibration     3          0.600              1.962              3.845
 Vibration     4          0.603              1.951              3.497
 Vibration     5          0.616              1.910              2.758
 Vibration     6          0.627              1.876              2.401
 Vibration     7          0.632              1.859              2.269
 Vibration     8          0.647              1.811              1.963
 Vibration     9          0.648              1.808              1.947
 Vibration    10          0.672              1.736              1.623
 Vibration    11          0.691              1.678              1.429
 Vibration    12          0.704              1.641              1.326
 Vibration    13          0.721              1.591              1.202
 Vibration    14          0.735              1.554              1.121
 Vibration    15          0.773              1.452              0.933
 Vibration    16          0.803              1.376              0.817
 Vibration    17          0.838              1.291              0.706
 Vibration    18          0.865              1.228              0.633
 Vibration    19          0.900              1.150              0.554
 Vibration    20          0.918              1.113              0.520
 Vibration    21          0.924              1.100              0.507
 Vibration    22          0.965              1.017              0.438
 Vibration    23          0.970              1.008              0.431

 Normal termination of Gaussian 09 at Tue May 28 18:21:30 2024.
