 Gaussian 09, Revision E.01,
 Gaussian 09:  ES64L-G09RevE.01 30-Nov-2015

 -----------------------------
 # opt freq pbepbe/6-31+g(d,p)
 -----------------------------

 ----------
 [No Title]
 ----------
 Symbolic Z-matrix:
 Charge =  0 Multiplicity = 1

 SCF Done:  E(RPBE-PBE) =  -687.211753242     A.U. after   17 cycles
 SCF Done:  E(RPBE-PBE) =  -687.213218522     A.U. after   13 cycles
 SCF Done:  E(RPBE-PBE) =  -687.213253694     A.U. after   11 cycles
 SCF Done:  E(RPBE-PBE) =  -687.213256610     A.U. after   10 cycles
 SCF Done:  E(RPBE-PBE) =  -687.213255921     A.U. after   10 cycles
 SCF Done:  E(RPBE-PBE) =  -687.213257128     A.U. after   10 cycles
 Optimization completed.
    -- Stationary point found.
 Normal termination of Gaussian 09 at Tue May 28 17:17:38 2024.

 ----------------------------------------------------------------------
 #N Geom=AllCheck Guess=TCheck SCRF=Check GenChk RPBEPBE/6-31+G(d,p) Fr
 eq
 ----------------------------------------------------------------------

 Structure from the checkpoint file:  "pbeFA.chk"
 ----------
 [No Title]
 ----------
 Charge =  0 Multiplicity = 1

                         Standard orientation:
 ---------------------------------------------------------------------
 Center     Atomic      Atomic             Coordinates (Angstroms)
 Number     Number       Type             X           Y           Z
 ---------------------------------------------------------------------
      1          6           0        1.466974   -2.027003   -0.000046
      2          6           0        2.507522   -1.087889   -0.000035
      3          6           0        2.200782    0.297592   -0.000018
      4          6           0        0.871207    0.720035   -0.000012
      5          6           0       -0.189677   -0.225750   -0.000024
      6          6           0        0.136093   -1.602099   -0.000040
      7          8           0        3.803881   -1.505829   -0.000040
      8          6           0       -1.562399    0.272714   -0.000023
      9          6           0       -2.713988   -0.451945   -0.000039
     10          8           0        3.316587    1.105549   -0.000019
     11          6           0        3.115191    2.522384    0.000206
     12          6           0       -4.096728    0.074979   -0.000012
     13          8           0       -5.075686   -0.660642    0.000262
     14          8           0       -4.292390    1.437830   -0.000195
     15          1           0        1.722657   -3.089836   -0.000054
     16          1           0        0.632619    1.787237   -0.000003
     17          1           0       -0.657518   -2.353257   -0.000044
     18          1           0        4.368895   -0.704410   -0.000010
     19          1           0       -1.624197    1.372793    0.000015
     20          1           0       -2.692141   -1.545265   -0.000023
     21          1           0        4.119155    2.967266    0.000295
     22          1           0        2.567453    2.844352   -0.903817
     23          1           0        2.567415    2.844057    0.904310
     24          1           0       -3.433328    1.903681   -0.000481
 ---------------------------------------------------------------------

 SCF Done:  E(RPBE-PBE) =  -687.213257128     A.U. after    1 cycles

 The electronic state is 1-A.
 Alpha  occ. eigenvalues --  -18.85249 -18.83735 -18.82489 -18.76207 -10.02551
 Alpha  occ. eigenvalues --   -9.99014  -9.98982  -9.98473  -9.94942  -9.94165
 Alpha  occ. eigenvalues --   -9.93765  -9.93003  -9.92931  -9.92860  -1.02094
 Alpha  occ. eigenvalues --   -1.00294  -0.99239  -0.92442  -0.80497  -0.74705
 Alpha  occ. eigenvalues --   -0.71174  -0.69493  -0.65936  -0.61017  -0.57550
 Alpha  occ. eigenvalues --   -0.56062  -0.54038  -0.52761  -0.49822  -0.47497
 Alpha  occ. eigenvalues --   -0.46100  -0.44806  -0.43177  -0.42091  -0.40360
 Alpha  occ. eigenvalues --   -0.39402  -0.39235  -0.38912  -0.37526  -0.36251
 Alpha  occ. eigenvalues --   -0.35260  -0.33701  -0.33203  -0.32948  -0.32153
 Alpha  occ. eigenvalues --   -0.31953  -0.27549  -0.26647  -0.23718  -0.22654
 Alpha  occ. eigenvalues --   -0.20298
 Alpha virt. eigenvalues --   -0.10655  -0.05591  -0.03765  -0.03009  -0.02655
 Alpha virt. eigenvalues --   -0.01717  -0.00354   0.01430   0.01674   0.01828
 Alpha virt. eigenvalues --    0.03116   0.03241   0.03490   0.04179   0.05074

 Mulliken charges:
               1
     1  C    0.160544
     2  C   -0.360122
     3  C    0.266795
     4  C   -0.439495
     5  C    0.300945
     6  C   -0.381201
     7  O   -0.460052
     8  C   -0.032834
     9  C    0.100422
    10  O   -0.375555
    11  C   -0.204637
    12  C    0.296003
    13  O   -0.410915
    14  O   -0.371501
    15  H    0.160525
    16  H    0.131416
    17  H    0.141368
    18  H    0.384691
    19  H    0.094377
    20  H    0.153812
    21  H    0.176581
    22  H    0.174677
    23  H    0.174677
    24  H    0.319480
 Sum of Mulliken charges =  -0.00000

 Dipole moment (field-independent basis, Debye):
    X=              7.2656    Y=              3.6149    Z=             -0.0005  Tot=              8.1152
 Quadrupole moment (field-independent basis, Debye-Ang):
   XX=           -114.5185   YY=            -71.1065   ZZ=            -85.3709
   XY=              5.8573   XZ=              0.0046   YZ=              0.0002

  Exact polarizability: 264.389   1.543 148.030  -0.001  -0.001  76.068
 Approx polarizability: 561.108   5.231 287.808  -0.008  -0.005 125.426

 ******    1 imaginary frequencies (negative Signs) ******

                      1                      2                      3
                      A                      A                      A
 Frequencies --    -48.6622                41.1840                72.1956
 Red. masses --      3.3914                 3.8793                 4.0998
 Frc consts  --      0.0047                 0.0039                 0.0126
 IR Inten    --     14.7300                 0.0000                 7.2988

                      4                      5                      6
                      A                      A                      A
 Frequencies --     81.7576                81.8444               158.2392
 Red. masses --      3.4460                 6.0874                 4.1040
 Frc consts  --      0.0136                 0.0240                 0.0605
 IR Inten    --      1.5456                 3.4733                 0.5562

                      7                      8                      9
                      A                      A                      A
 Frequencies --    191.9915               207.6991               225.4713
 Red. masses --      3.8634                 1.4738                 7.1545
 Frc consts  --      0.0839                 0.0375                 0.2143
 IR Inten    --      3.9262                 0.0043                 6.7370

                     10                     11                     12
                      A                      A                      A
 Frequencies --    272.2715               294.0871               345.3717
 Red. masses --      2.1601                 6.2485                 3.7998
 Frc consts  --      0.0943                 0.3184                 0.2670
 IR Inten    --      0.1376                 7.4235                 3.1945

                     13                     14                     15
                      A                      A                      A
 Frequencies --    347.7203               398.4564               439.2813
 Red. masses --      4.6901                 1.3085                 3.1367
 Frc consts  --      0.3341                 0.1224                 0.3566
 IR Inten    --      3.7271                71.7555                 4.8489

                     16                     17                     18
                      A                      A                      A
 Frequencies --    473.5218               498.8354               510.7144
 Red. masses --      5.2627                 1.0826                 6.0685
 Frc consts  --      0.6953                 0.1587                 0.9326
 IR Inten    --      1.0297               100.4999                 2.2930

                     19                     20                     21
                      A                      A                      A
 Frequencies --    558.3812               562.5495               563.8560
 Red. masses --      4.0753                 7.2977                 3.8075
 Frc consts  --      0.7486                 1.3607                 0.7132
 IR Inten    --      8.1618                29.1018                 6.6454

                     22                     23                     24
                      A                      A                      A
 Frequencies --    629.5882               672.4193               695.8173
 Red. masses --      5.7249                 4.9548                 4.6078
 Frc consts  --      1.3370                 1.3199                 1.3144
 IR Inten    --      2.2149                 0.1509                 0.0244

                     25                     26                     27
                      A                      A                      A
 Frequencies --    755.4609               793.3440               799.7857
 Red. masses --      5.9264                 1.4599                 5.3364
 Frc consts  --      1.9928                 0.5414                 2.0112
 IR Inten    --     10.3917                 9.3636                13.0572

                     28                     29                     30
                      A                      A                      A
 Frequencies --    807.6708               842.5334               881.6883
 Red. masses --      1.5736                 2.0779                 5.1538
 Frc consts  --      0.6048                 0.8690                 2.3605
 IR Inten    --     37.1642                 0.6680                32.6642

                     31                     32                     33
                      A                      A                      A
 Frequencies --    909.5684               933.6659               947.4781
 Red. masses --      1.2955                 3.6220                 1.1203
 Frc consts  --      0.6315                 1.8603                 0.5926
 IR Inten    --      4.0138                 7.2215                40.6518

                     34                     35                     36
                      A                      A                      A
 Frequencies --   1029.7795              1114.8853              1131.4821
 Red. masses --      4.1201                 1.5892                 1.2709
 Frc consts  --      2.5742                 1.1638                 0.9586
 IR Inten    --     41.8654                42.4961                 0.2708

                     37                     38                     39
                      A                      A                      A
 Frequencies --   1137.9199              1156.3711              1179.3408
 Red. masses --      1.6012                 1.4635                 1.6943
 Frc consts  --      1.2216                 1.1530                 1.3884
 IR Inten    --     63.3347                16.4846               110.8392

                     40                     41                     42
                      A                      A                      A
 Frequencies --   1190.5088              1226.9550              1257.6620
 Red. masses --      1.3766                 1.9980                 1.9794
 Frc consts  --      1.1496                 1.7722                 1.8446
 IR Inten    --    156.1395                39.0389               109.5926

                     43                     44                     45
                      A                      A                      A
 Frequencies --   1268.1935              1281.1251              1307.0333
 Red. masses --      2.1963                 1.8069                 2.2556
 Frc consts  --      2.0812                 1.7473                 2.2703
 IR Inten    --    611.0563               125.7207               122.4252

                     46                     47                     48
                      A                      A                      A
 Frequencies --   1323.5406              1401.6441              1421.4582
 Red. masses --      1.9713                 3.1048                 1.6967
 Frc consts  --      2.0345                 3.5938                 2.0199
 IR Inten    --     65.6080                 9.8675                 3.1252

                     49                     50                     51
                      A                      A                      A
 Frequencies --   1442.4460              1443.8649              1458.5191
 Red. masses --      2.0331                 1.0441                 1.1226
 Frc consts  --      2.4924                 1.2824                 1.4070
 IR Inten    --     28.4030                10.7944                52.5658

                     52                     53                     54
                      A                      A                      A
 Frequencies --   1511.9337              1587.3728              1606.0340
 Red. masses --      3.7230                 5.7126                 6.4421
 Frc consts  --      5.0142                 8.4809                 9.7901
 IR Inten    --    265.3521               176.9123               112.0792

                     55                     56                     57
                      A                      A                      A
 Frequencies --   1633.7024              1736.7856              2956.8706
 Red. masses --      5.8532                 9.7790                 1.0333
 Frc consts  --      9.2043                17.3795                 5.3231
 IR Inten    --     40.0034               505.3034                47.6095

                     58                     59                     60
                      A                      A                      A
 Frequencies --   3028.9350              3029.8566              3100.0155
 Red. masses --      1.1066                 1.0868                 1.1005
 Frc consts  --      5.9817                 5.8783                 6.2314
 IR Inten    --     27.7185                34.5950                13.1564

                     61                     62                     63
                      A                      A                      A
 Frequencies --   3132.9836              3136.7633              3142.3359
 Red. masses --      1.0893                 1.0883                 1.0882
 Frc consts  --      6.2994                 6.3090                 6.3310
 IR Inten    --      5.8840                 5.1411                 1.4539

                     64                     65                     66
                      A                      A                      A
 Frequencies --   3152.9320              3632.2931              3673.8946
 Red. masses --      1.0946                 1.0650                 1.0651
 Frc consts  --      6.4112                 8.2785                 8.4699
 IR Inten    --      3.9762               149.2096                 6.7859

 - Thermochemistry -
 -------------------
 Temperature   298.150 Kelvin.  Pressure   1.00000 Atm.
 Atom     1 has atomic number  6 and mass  12.00000

 Molecular mass:   194.05791 amu.
 Principal axes and moments of inertia in atomic units:
                           1         2         3
     Eigenvalues --  1182.611286412.500187583.34512
           X            0.99994   0.01132  -0.00000
           Y           -0.01132   0.99994  -0.00001
           Z            0.00000   0.00001   1.00000
 This molecule is an asymmetric top.
 Rotational symmetry number  1.
 Warning -- assumption of classical behavior for rotation
           may cause significant error
 Rotational temperatures (Kelvin)      0.07324     0.01351     0.01142
 Rotational constants (GHZ):           1.52606     0.28144     0.23799
    1 imaginary frequencies ignored.
 Zero-point vibrational energy     471507.4 (Joules/Mol)
                                  112.69298 (Kcal/Mol)
 Warning -- explicit consideration of  20 degrees of freedom as
           vibrations may cause significant error
 Vibrational temperatures:     59.25   103.87   117.63   117.76   227.67
          (Kelvin)            276.23   298.83   324.40   391.74   423.13
                              496.91   500.29   573.29   632.03   681.29
                              717.71   734.80   803.39   809.38   811.26
                              905.84   967.46  1001.12  1086.94  1141.44
                             1150.71  1162.06  1212.22  1268.55  1308.66
                             1343.34  1363.21  1481.62  1604.07  1627.95
                             1637.21  1663.76  1696.81  1712.87  1765.31
                             1809.49  1824.65  1843.25  1880.53  1904.28
                             2016.65  2045.16  2075.36  2077.40  2098.48
                             2175.33  2283.87  2310.72  2350.53  2498.84
                             4254.27  4357.96  4359.28  4460.23  4507.66
                             4513.10  4521.11  4536.36  5226.05  5285.91

 Zero-point correction=                           0.179588 (Hartree/Particle)
 Thermal correction to Energy=                    0.192565
 Thermal correction to Enthalpy=                  0.193509
 Thermal correction to Gibbs Free Energy=         0.139372
 Sum of electronic and zero-point Energies=           -687.033669
 Sum of electronic and thermal Energies=              -687.020693
 Sum of electronic and thermal Enthalpies=            -687.019748
 Sum of electronic and thermal Free Energies=         -687.073885

                     E (Thermal)             CV                S
                      KCal/Mol        Cal/Mol-Kelvin    Cal/Mol-Kelvin
 Total                  120.836             49.102            113.939
 Electronic               0.000              0.000              0.000
 Translational            0.889              2.981             41.694
 Rotational               0.889              2.981             32.420
 Vibrational            119.059             43.141             39.825
 Vibration     1          0.594              1.981              5.201
 Vibration     2          0.598              1.967              4.093
 Vibration     3          0.600              1.962              3.848
 Vibration     4          0.600              1.962              3.846
 Vibration     5          0.621              1.893              2.571
 Vibration     6          0.634              1.851              2.209
 Vibration     7          0.641              1.829              2.064
 Vibration     8          0.650              1.802              1.915
 Vibration     9          0.675              1.724              1.582
 Vibration    10          0.689              1.685              1.450
 Vibration    11          0.724              1.585              1.187
 Vibration    12          0.725              1.580              1.177
 Vibration    13          0.765              1.473              0.968
 Vibration    14          0.799              1.385              0.829
 Vibration    15          0.830              1.309              0.728
 Vibration    16          0.854              1.253              0.661
 Vibration    17          0.866              1.226              0.632
 Vibration    18          0.914              1.121              0.527
 Vibration    19          0.918              1.112              0.519
 Vibration    20          0.920              1.109              0.516

 Optimization completed.
    -- Stationary point found.
 Normal termination of Gaussian 09 at Tue May 28 17:20:47 2024.
