 Gaussian 09, Revision E.01,
 Gaussian 09:  ES64L-G09RevE.01 30-Nov-2015

 -----------------------------
 # opt freq wb97xd/6-31+g(d,p)
 -----------------------------

 ----------
 [No Title]
 ----------
 Symbolic Z-matrix:
 Charge =  0 Multiplicity = 1

 SCF Done:  E(RwB97XD) =  -687.777570454     A.U. after   17 cycles
 SCF Done:  E(RwB97XD) =  -687.778070850     A.U. after   13 cycles
 SCF Done:  E(RwB97XD) =  -687.778111754     A.U. after   12 cycles
 SCF Done:  E(RwB97XD) =  -687.778117920     A.U. after   11 cycles
 SCF Done:  E(RwB97XD) =  -687.778116902     A.U. after   10 cycles
 SCF Done:  E(RwB97XD) =  -687.778118526     A.U. after   10 cycles
 Optimization completed.
    -- Stationary point found.
 Normal termination of Gaussian 09 at Tue May 28 17:26:32 2024.

 ----------------------------------------------------------------------
 #N Geom=AllCheck Guess=TCheck SCRF=Check GenChk RwB97XD/6-31+G(d,p) Fr
 eq
 ----------------------------------------------------------------------

 Structure from the checkpoint file:  "WB97XDFA.chk"
 ----------
 [No Title]
 ----------
 Charge =  0 Multiplicity = 1

                         Standard orientation:
 ---------------------------------------------------------------------
 Center     Atomic      Atomic             Coordinates (Angstroms)
 Number     Number       Type             X           Y           Z
 ---------------------------------------------------------------------
      1          6           0        1.463049   -2.009333   -0.000076
      2          6           0        2.492738   -1.078102   -0.000075
      3          6           0        2.188738    0.294365   -0.000053
      4          6           0        0.867639    0.712303   -0.000035
      5          6           0       -0.180364   -0.226554   -0.000033
      6          6           0        0.138276   -1.587883   -0.000053
      7          8           0        3.778466   -1.492263   -0.000096
      8          6           0       -1.558357    0.275288   -0.000016
      9          6           0       -2.687776   -0.448112    0.000014
     10          8           0        3.286933    1.103535   -0.000060
     11          6           0        3.088011    2.503805    0.000259
     12          6           0       -4.076058    0.076920    0.000052
     13          8           0       -5.031858   -0.660141    0.000507
     14          8           0       -4.272753    1.416151   -0.000347
     15          1           0        1.715437   -3.063868   -0.000088
     16          1           0        0.631922    1.771473   -0.000025
     17          1           0       -0.645873   -2.336455   -0.000049
     18          1           0        4.350354   -0.713961   -0.000070
     19          1           0       -1.618332    1.365571    0.000003
     20          1           0       -2.665349   -1.532414    0.000083
     21          1           0        4.081213    2.951058    0.000394
     22          1           0        2.544452    2.823282   -0.896542
     23          1           0        2.544390    2.822858    0.897173
     24          1           0       -3.439891    1.898014   -0.000823
 ---------------------------------------------------------------------

 SCF Done:  E(RwB97XD) =  -687.778118526     A.U. after    1 cycles

 The electronic state is 1-A.
 Alpha  occ. eigenvalues --  -19.34383 -19.33013 -19.32683 -19.26312 -10.44116
 Alpha  occ. eigenvalues --  -10.38820 -10.38701 -10.38027 -10.35338 -10.33819
 Alpha  occ. eigenvalues --  -10.33482 -10.33040 -10.32675 -10.32276  -1.21463
 Alpha  occ. eigenvalues --   -1.21290  -1.18177  -1.12562  -0.98834  -0.92691
 Alpha  occ. eigenvalues --   -0.88270  -0.86742  -0.82463  -0.77072  -0.73085
 Alpha  occ. eigenvalues --   -0.72174  -0.69595  -0.67458  -0.64554  -0.62146
 Alpha  occ. eigenvalues --   -0.60515  -0.59221  -0.57212  -0.55765  -0.54278
 Alpha  occ. eigenvalues --   -0.54136  -0.53482  -0.52694  -0.51860  -0.49230
 Alpha  occ. eigenvalues --   -0.48834  -0.46945  -0.46803  -0.45639  -0.44750
 Alpha  occ. eigenvalues --   -0.44724  -0.41112  -0.38488  -0.36493  -0.34081
 Alpha  occ. eigenvalues --   -0.29798
 Alpha virt. eigenvalues --   -0.01400   0.04223   0.04250   0.05550   0.06462
 Alpha virt. eigenvalues --    0.07144   0.07523   0.08970   0.09418   0.09748
 Alpha virt. eigenvalues --    0.10857   0.10935   0.11271   0.12716   0.12761

 Mulliken charges:
               1
     1  C    0.235725
     2  C   -0.230478
     3  C    0.221061
     4  C   -0.546259
     5  C    0.175163
     6  C   -0.268376
     7  O   -0.525835
     8  C   -0.192392
     9  C    0.321093
    10  O   -0.452159
    11  C   -0.151112
    12  C    0.344489
    13  O   -0.448463
    14  O   -0.428808
    15  H    0.175851
    16  H    0.139240
    17  H    0.149808
    18  H    0.398669
    19  H    0.095572
    20  H    0.163042
    21  H    0.169373
    22  H    0.157999
    23  H    0.158002
    24  H    0.338796
 Sum of Mulliken charges =  -0.00000

 Dipole moment (field-independent basis, Debye):
    X=              6.4497    Y=              3.9214    Z=             -0.0010  Tot=              7.5482
 Quadrupole moment (field-independent basis, Debye-Ang):
   XX=           -114.8884   YY=            -70.2513   ZZ=            -84.6448
   XY=              5.5043   XZ=              0.0079   YZ=             -0.0000

  Exact polarizability: 221.431   6.158 136.269  -0.004  -0.003  72.973
 Approx polarizability: 210.677   9.931 155.131  -0.007  -0.005  84.821

 ******    2 imaginary frequencies (negative Signs) ******

                      1                      2                      3
                      A                      A                      A
 Frequencies --   -117.6376               -35.9339                64.5780
 Red. masses --      1.9284                 5.0672                 6.5801
 Frc consts  --      0.0157                 0.0039                 0.0162
 IR Inten    --     14.6288                 5.3755                 3.9306

                      4                      5                      6
                      A                      A                      A
 Frequencies --     70.0686                90.3400               165.7135
 Red. masses --      3.2629                 6.1690                 4.6054
 Frc consts  --      0.0094                 0.0297                 0.0745
 IR Inten    --      2.6971                 4.2192                 1.3237

                      7                      8                      9
                      A                      A                      A
 Frequencies --    207.4137               212.6752               237.8386
 Red. masses --      4.0070                 1.5931                 7.3191
 Frc consts  --      0.1016                 0.0425                 0.2439
 IR Inten    --      4.4407                 0.0942                 6.9356

                     10                     11                     12
                      A                      A                      A
 Frequencies --    282.0314               303.4735               361.2082
 Red. masses --      2.0167                 6.1766                 3.4239
 Frc consts  --      0.0945                 0.3352                 0.2632
 IR Inten    --      0.0042                 7.9329                 7.6124

                     13                     14                     15
                      A                      A                      A
 Frequencies --    368.7875               394.0609               456.2021
 Red. masses --      4.6016                 1.3790                 2.1194
 Frc consts  --      0.3687                 0.1262                 0.2599
 IR Inten    --      4.5406                79.7469                41.5771

                     16                     17                     18
                      A                      A                      A
 Frequencies --    473.8858               492.6394               533.0332
 Red. masses --      1.2802                 5.1898                 6.0776
 Frc consts  --      0.1694                 0.7421                 1.0174
 IR Inten    --     76.4924                 0.6057                 1.9607

                     19                     20                     21
                      A                      A                      A
 Frequencies --    583.4949               588.7071               589.5675
 Red. masses --      4.2171                 3.8440                 6.9917
 Frc consts  --      0.8459                 0.7849                 1.4319
 IR Inten    --     14.4493                10.1963                23.4963

                     22                     23                     24
                      A                      A                      A
 Frequencies --    661.8764               708.1811               731.4867
 Red. masses --      5.6362                 4.6755                 4.2364
 Frc consts  --      1.4548                 1.3816                 1.3355
 IR Inten    --      4.0591                 0.0055                 0.0195

                     25                     26                     27
                      A                      A                      A
 Frequencies --    786.5989               836.2495               838.8170
 Red. masses --      5.8010                 5.4715                 1.4594
 Frc consts  --      2.1147                 2.2544                 0.6050
 IR Inten    --      8.4604                11.7372                17.1489

                     28                     29                     30
                      A                      A                      A
 Frequencies --    850.6317               888.4271               935.2939
 Red. masses --      1.6668                 2.1404                 5.1910
 Frc consts  --      0.7106                 0.9954                 2.6755
 IR Inten    --     39.7705                 0.3210                32.4479

                     31                     32                     33
                      A                      A                      A
 Frequencies --    964.2991               973.8972               989.4241
 Red. masses --      1.3138                 3.6497                 1.1341
 Frc consts  --      0.7198                 2.0396                 0.6541
 IR Inten    --      7.9459                 6.9890                42.1714

                     34                     35                     36
                      A                      A                      A
 Frequencies --   1091.2120              1176.1012              1183.9377
 Red. masses --      3.9290                 1.5980                 1.2753
 Frc consts  --      2.7564                 1.3023                 1.0532
 IR Inten    --     42.9785                11.8514                 0.8458

                     37                     38                     39
                      A                      A                      A
 Frequencies --   1185.2283              1211.4077              1233.9855
 Red. masses --      1.4465                 1.4858                 1.8959
 Frc consts  --      1.1972                 1.2847                 1.7010
 IR Inten    --     58.0259                19.9829               142.4031

                     40                     41                     42
                      A                      A                      A
 Frequencies --   1243.4222              1280.4401              1322.3001
 Red. masses --      1.3090                 2.7286                 1.4892
 Frc consts  --      1.1924                 2.6358                 1.5341
 IR Inten    --    130.0001                77.9169                23.3045

                     43                     44                     45
                      A                      A                      A
 Frequencies --   1332.0386              1354.1206              1362.5107
 Red. masses --      2.9818                 2.2938                 4.5232
 Frc consts  --      3.1172                 2.4782                 4.9474
 IR Inten    --    479.5748               203.3040               250.1234

                     46                     47                     48
                      A                      A                      A
 Frequencies --   1379.1337              1431.9818              1485.5804
 Red. masses --      1.3400                 2.4345                 1.8796
 Frc consts  --      1.5017                 2.9413                 2.4441
 IR Inten    --      4.6744                61.5693                11.3872

                     49                     50                     51
                      A                      A                      A
 Frequencies --   1503.7661              1506.3034              1522.8325
 Red. masses --      1.0424                 1.6080                 1.1227
 Frc consts  --      1.3888                 2.1497                 1.5339
 IR Inten    --     11.0619                21.3042                53.8416

                     52                     53                     54
                      A                      A                      A
 Frequencies --   1591.3859              1676.7500              1691.9124
 Red. masses --      3.6085                 5.6575                 6.4418
 Frc consts  --      5.3843                 9.3715                10.8646
 IR Inten    --    316.7323               126.1738                58.8474

                     55                     56                     57
                      A                      A                      A
 Frequencies --   1732.2584              1860.5053              3042.0386
 Red. masses --      5.8989                10.1845                 1.0347
 Frc consts  --     10.4291                20.7707                 5.6415
 IR Inten    --     66.6528               574.2110                44.1687

                     58                     59                     60
                      A                      A                      A
 Frequencies --   3116.6329              3146.8407              3193.6630
 Red. masses --      1.1070                 1.0884                 1.1004
 Frc consts  --      6.3352                 6.3504                 6.6127
 IR Inten    --     31.0468                34.2796                18.5900

                     61                     62                     63
                      A                      A                      A
 Frequencies --   3227.0523              3233.7277              3245.5887
 Red. masses --      1.0904                 1.0895                 1.0935
 Frc consts  --      6.6903                 6.7128                 6.7868
 IR Inten    --      6.4558                 5.4675                 1.4467

                     64                     65                     66
                      A                      A                      A
 Frequencies --   3256.8190              3851.4719              3909.1124
 Red. masses --      1.0917                 1.0654                 1.0656
 Frc consts  --      6.8223                 9.3115                 9.5942
 IR Inten    --      3.6168               158.0038                24.4788

 - Thermochemistry -
 -------------------
 Temperature   298.150 Kelvin.  Pressure   1.00000 Atm.
 Atom     1 has atomic number  6 and mass  12.00000

 Molecular mass:   194.05791 amu.
 Principal axes and moments of inertia in atomic units:
                           1         2         3
     Eigenvalues --  1163.371576324.789807476.58181
           X            0.99994   0.01114   0.00001
           Y           -0.01114   0.99994  -0.00000
           Z           -0.00001   0.00000   1.00000
 This molecule is an asymmetric top.
 Rotational symmetry number  1.
 Warning -- assumption of classical behavior for rotation
           may cause significant error
 Rotational temperatures (Kelvin)      0.07445     0.01369     0.01158
 Rotational constants (GHZ):           1.55130     0.28534     0.24139
    2 imaginary frequencies ignored.
 Zero-point vibrational energy     491802.5 (Joules/Mol)
                                  117.54363 (Kcal/Mol)
 Warning -- explicit consideration of  19 degrees of freedom as
           vibrations may cause significant error
 Vibrational temperatures:     92.91   100.81   129.98   238.42   298.42
          (Kelvin)            305.99   342.20   405.78   436.63   519.70
                              530.60   566.97   656.37   681.82   708.80
                              766.91   839.52   847.02   848.26   952.29
                             1018.91  1052.44  1131.74  1203.17  1206.87
                             1223.87  1278.25  1345.68  1387.41  1401.22
                             1423.56  1570.01  1692.15  1703.42  1705.28
                             1742.94  1775.43  1789.01  1842.27  1902.49
                             1916.50  1948.28  1960.35  1984.26  2060.30
                             2137.42  2163.58  2167.23  2191.01  2289.65
                             2412.47  2434.28  2492.33  2676.85  4376.81
                             4484.13  4527.60  4594.96  4643.00  4652.61
                             4669.67  4685.83  5541.40  5624.33

 Zero-point correction=                           0.187318 (Hartree/Particle)
 Thermal correction to Energy=                    0.199078
 Thermal correction to Enthalpy=                  0.200022
 Thermal correction to Gibbs Free Energy=         0.148879
 Sum of electronic and zero-point Energies=           -687.590801
 Sum of electronic and thermal Energies=              -687.579041
 Sum of electronic and thermal Enthalpies=            -687.578096
 Sum of electronic and thermal Free Energies=         -687.629240

                     E (Thermal)             CV                S
                      KCal/Mol        Cal/Mol-Kelvin    Cal/Mol-Kelvin
 Total                  124.923             45.352            107.640
 Electronic               0.000              0.000              0.000
 Translational            0.889              2.981             41.694
 Rotational               0.889              2.981             32.376
 Vibrational            123.146             39.391             33.571
 Vibration     1          0.597              1.971              4.312
 Vibration     2          0.598              1.968              4.151
 Vibration     3          0.602              1.956              3.653
 Vibration     4          0.624              1.885              2.484
 Vibration     5          0.641              1.829              2.066
 Vibration     6          0.644              1.822              2.021
 Vibration     7          0.656              1.783              1.819
 Vibration     8          0.681              1.707              1.521
 Vibration     9          0.695              1.667              1.398
 Vibration    10          0.735              1.552              1.117
 Vibration    11          0.741              1.536              1.085
 Vibration    12          0.761              1.483              0.985
 Vibration    13          0.814              1.347              0.777
 Vibration    14          0.831              1.308              0.727
 Vibration    15          0.848              1.266              0.677
 Vibration    16          0.888              1.177              0.580
 Vibration    17          0.940              1.067              0.479
 Vibration    18          0.946              1.056              0.469
 Vibration    19          0.947              1.054              0.468

 Optimization completed.
    -- Stationary point found.
 Normal termination of Gaussian 09 at Tue May 28 17:32:23 2024.
