 Gaussian 09, Revision E.01,
 Gaussian 09:  ES64L-G09RevE.01 30-Nov-2015

 -----------------------------
 # opt freq wb97xd/6-31+g(d,p)
 -----------------------------

 ----------
 [No Title]
 ----------
 Symbolic Z-matrix:
 Charge =  1 Multiplicity = 1

 SCF Done:  E(RwB97XD) =  -688.133856571     A.U. after   17 cycles
 SCF Done:  E(RwB97XD) =  -688.134336034     A.U. after   13 cycles
 SCF Done:  E(RwB97XD) =  -688.134377635     A.U. after   12 cycles
 SCF Done:  E(RwB97XD) =  -688.134387865     A.U. after   12 cycles
 SCF Done:  E(RwB97XD) =  -688.134394534     A.U. after   12 cycles
 SCF Done:  E(RwB97XD) =  -688.134403499     A.U. after   12 cycles
 SCF Done:  E(RwB97XD) =  -688.134408997     A.U. after   12 cycles
 SCF Done:  E(RwB97XD) =  -688.134410095     A.U. after   11 cycles
 SCF Done:  E(RwB97XD) =  -688.134410320     A.U. after   10 cycles
 SCF Done:  E(RwB97XD) =  -688.134410377     A.U. after    9 cycles
 SCF Done:  E(RwB97XD) =  -688.134410414     A.U. after   10 cycles
 SCF Done:  E(RwB97XD) =  -688.134410433     A.U. after    9 cycles
 Optimization completed.
    -- Stationary point found.
 Normal termination of Gaussian 09 at Tue May 28 18:29:15 2024.

 ----------------------------------------------------------------------
 #N Geom=AllCheck Guess=TCheck SCRF=Check GenChk RwB97XD/6-31+G(d,p) Fr
 eq
 ----------------------------------------------------------------------

 Structure from the checkpoint file:  "WB97XDFAyang.chk"
 ----------
 [No Title]
 ----------
 Charge =  1 Multiplicity = 1

                         Standard orientation:
 ---------------------------------------------------------------------
 Center     Atomic      Atomic             Coordinates (Angstroms)
 Number     Number       Type             X           Y           Z
 ---------------------------------------------------------------------
      1          6           0        1.478207   -2.024978   -0.023339
      2          6           0        2.512199   -1.081964   -0.012250
      3          6           0        2.224170    0.309926    0.003966
      4          6           0        0.916358    0.730975    0.009346
      5          6           0       -0.144773   -0.219698    0.001659
      6          6           0        0.168609   -1.600108   -0.017751
      7          8           0        3.769180   -1.497229   -0.018564
      8          6           0       -1.472913    0.264505    0.007773
      9          6           0       -2.641347   -0.480363    0.026012
     10          6           0       -3.885233    0.135149    0.001322
     11          8           0       -4.953930   -0.622389    0.094114
     12          8           0       -3.990986    1.442211   -0.121926
     13          8           0        3.332179    1.080978    0.011939
     14          6           0        3.179475    2.495523    0.032850
     15          1           0        1.736959   -3.077123   -0.039021
     16          1           0        0.680438    1.789561    0.021565
     17          1           0       -0.620157   -2.343306   -0.029944
     18          1           0        4.367747   -0.734529   -0.010233
     19          1           0       -1.586994    1.347474   -0.002920
     20          1           0       -2.654724   -1.561846    0.060774
     21          1           0       -5.798037   -0.180761   -0.065553
     22          1           0       -4.870087    1.803331    0.048710
     23          1           0        4.187251    2.905510    0.040199
     24          1           0        2.649844    2.838215   -0.862183
     25          1           0        2.647697    2.811096    0.936579
 ---------------------------------------------------------------------

 SCF Done:  E(RwB97XD) =  -688.134410433     A.U. after    1 cycles

 The electronic state is 1-A.
 Alpha  occ. eigenvalues --  -19.52276 -19.52033 -19.44924 -19.44689 -10.63966
 Alpha  occ. eigenvalues --  -10.52109 -10.50423 -10.50292 -10.46975 -10.46504
 Alpha  occ. eigenvalues --  -10.46106 -10.45751 -10.45663 -10.44008  -1.42924
 Alpha  occ. eigenvalues --   -1.34976  -1.33062  -1.29962  -1.11484  -1.07757
 Alpha  occ. eigenvalues --   -1.01631  -1.00023  -0.95285  -0.92785  -0.90148
 Alpha  occ. eigenvalues --   -0.87857  -0.84376  -0.81465  -0.79393  -0.76891
 Alpha  occ. eigenvalues --   -0.74455  -0.73910  -0.72879  -0.71342  -0.69291
 Alpha  occ. eigenvalues --   -0.67804  -0.66801  -0.65342  -0.64763  -0.64281
 Alpha  occ. eigenvalues --   -0.63987  -0.62651  -0.61387  -0.60508  -0.59497
 Alpha  occ. eigenvalues --   -0.56516  -0.55729  -0.55661  -0.51714  -0.46065
 Alpha  occ. eigenvalues --   -0.41917
 Alpha virt. eigenvalues --   -0.18724  -0.09282  -0.06889  -0.06744  -0.04162
 Alpha virt. eigenvalues --   -0.03233  -0.02738  -0.02362  -0.01096  -0.00994
 Alpha virt. eigenvalues --   -0.00185   0.00253   0.01175   0.01257   0.01498

 Mulliken charges:
               1
     1  C    0.187583
     2  C   -0.208137
     3  C    0.253470
     4  C   -0.357273
     5  C    0.134381
     6  C   -0.211849
     7  O   -0.461396
     8  C    0.060363
     9  C   -0.603879
    10  C    0.987479
    11  O   -0.407033
    12  O   -0.459743
    13  O   -0.444976
    14  C   -0.146147
    15  H    0.206935
    16  H    0.169372
    17  H    0.167745
    18  H    0.418711
    19  H    0.188242
    20  H    0.191662
    21  H    0.399287
    22  H    0.405137
    23  H    0.193570
    24  H    0.168392
    25  H    0.168103
 Sum of Mulliken charges =   1.00000

 Dipole moment (field-independent basis, Debye):
    X=             -8.6553    Y=              3.6954    Z=              0.0457  Tot=              9.4113
 Quadrupole moment (field-independent basis, Debye-Ang):
   XX=             10.4923   YY=            -61.4003   ZZ=            -82.6652
   XY=             -2.9234   XZ=              0.3770   YZ=              0.8755

  Exact polarizability: 306.548 -19.490 131.215  -0.506  -0.051  68.553
 Approx polarizability: 285.281 -23.058 148.228  -0.764  -0.362  80.838

                      1                      2                      3
                      A                      A                      A
 Frequencies --     39.9849                56.0157                86.1744
 Red. masses --      6.4921                 5.8601                 3.2515
 Frc consts  --      0.0061                 0.0108                 0.0142
 IR Inten    --      0.8950                 3.0739                 4.6375

                      4                      5                      6
                      A                      A                      A
 Frequencies --     88.7538               133.5378               157.5219
 Red. masses --      5.0455                 3.1850                 2.4751
 Frc consts  --      0.0234                 0.0335                 0.0362
 IR Inten    --      1.4929                27.3586                35.3747

                      7                      8                      9
                      A                      A                      A
 Frequencies --    192.9568               208.3987               233.8362
 Red. masses --      2.2542                 1.5119                 6.2149
 Frc consts  --      0.0494                 0.0387                 0.2002
 IR Inten    --     21.9021                23.7146                 9.8946

                     10                     11                     12
                      A                      A                      A
 Frequencies --    247.4108               306.7385               324.9491
 Red. masses --      1.6126                 5.7668                 3.2381
 Frc consts  --      0.0582                 0.3197                 0.2015
 IR Inten    --     32.6201                 0.2078                 8.9351

                     13                     14                     15
                      A                      A                      A
 Frequencies --    358.2155               365.2189               430.9416
 Red. masses --      4.6076                 2.2151                 1.1834
 Frc consts  --      0.3484                 0.1741                 0.1295
 IR Inten    --     11.0168                11.1055               272.3650

                     16                     17                     18
                      A                      A                      A
 Frequencies --    459.9317               502.2326               533.5852
 Red. masses --      3.0855                 5.8226                 5.4679
 Frc consts  --      0.3846                 0.8653                 0.9172
 IR Inten    --      0.5256                20.9489                18.6798

                     19                     20                     21
                      A                      A                      A
 Frequencies --    572.6763               575.8642               590.9291
 Red. masses --      4.8778                 2.0293                 2.8526
 Frc consts  --      0.9425                 0.3965                 0.5869
 IR Inten    --     54.7759                71.6735                21.1229

                     22                     23                     24
                      A                      A                      A
 Frequencies --    595.5245               641.4232               709.1242
 Red. masses --      1.7065                 4.5898                 5.0418
 Frc consts  --      0.3566                 1.1126                 1.4938
 IR Inten    --     43.8283                 7.3234                 2.8993

                     25                     26                     27
                      A                      A                      A
 Frequencies --    728.0534               790.2331               838.5101
 Red. masses --      5.0322                 5.5971                 1.5445
 Frc consts  --      1.5716                 2.0593                 0.6398
 IR Inten    --      0.9852                17.1918                 5.7312

                     28                     29                     30
                      A                      A                      A
 Frequencies --    843.2739               856.6485               872.9612
 Red. masses --      5.3494                 1.5786                 1.4111
 Frc consts  --      2.2412                 0.6825                 0.6336
 IR Inten    --      1.0393                64.9806                19.7648

                     31                     32                     33
                      A                      A                      A
 Frequencies --    973.3747               981.5434              1005.1379
 Red. masses --      3.4341                 1.3254                 1.3547
 Frc consts  --      1.9170                 0.7523                 0.8064
 IR Inten    --     70.6115                 1.2111                36.3106

                     34                     35                     36
                      A                      A                      A
 Frequencies --   1013.2321              1072.5055              1143.0069
 Red. masses --      5.1580                 4.0833                 1.1281
 Frc consts  --      3.1199                 2.7673                 0.8683
 IR Inten    --    108.5180                56.6372               189.4083

                     37                     38                     39
                      A                      A                      A
 Frequencies --   1168.7543              1175.7049              1182.7110
 Red. masses --      1.6184                 1.5420                 1.2710
 Frc consts  --      1.3025                 1.2559                 1.0475
 IR Inten    --    744.7403              1301.1650                 0.9929

                     40                     41                     42
                      A                      A                      A
 Frequencies --   1208.3914              1233.9280              1254.8301
 Red. masses --      1.3618                 1.3027                 1.5313
 Frc consts  --      1.1716                 1.1687                 1.4206
 IR Inten    --     17.7429               147.9974                41.6898

                     43                     44                     45
                      A                      A                      A
 Frequencies --   1296.5120              1318.2864              1356.9886
 Red. masses --      1.9204                 2.0128                 1.9297
 Frc consts  --      1.9019                 2.0610                 2.0936
 IR Inten    --     35.5593               192.1732                81.7903

                     46                     47                     48
                      A                      A                      A
 Frequencies --   1368.3278              1390.9899              1447.2541
 Red. masses --      1.6991                 3.4446                 3.2839
 Frc consts  --      1.8744                 3.9268                 4.0526
 IR Inten    --    576.4977               248.5435               357.6679

                     49                     50                     51
                      A                      A                      A
 Frequencies --   1486.7979              1501.4745              1504.4689
 Red. masses --      1.6069                 2.1601                 1.0446
 Frc consts  --      2.0929                 2.8692                 1.3930
 IR Inten    --     68.6460               182.1140                15.9337

                     52                     53                     54
                      A                      A                      A
 Frequencies --   1516.0078              1529.2555              1586.3404
 Red. masses --      1.1581                 5.1808                 3.9282
 Frc consts  --      1.5683                 7.1385                 5.8242
 IR Inten    --     91.8323               286.7885              1372.2087

                     55                     56                     57
                      A                      A                      A
 Frequencies --   1628.1825              1643.4274              1654.0418
 Red. masses --      4.2006                 4.2378                 5.4092
 Frc consts  --      6.5609                 6.7436                 8.7193
 IR Inten    --   1476.2787                56.8799               372.3162

                     58                     59                     60
                      A                      A                      A
 Frequencies --   1702.2212              3056.7677              3139.0726
 Red. masses --      5.8408                 1.0342                 1.1081
 Frc consts  --      9.9714                 5.6933                 6.4334
 IR Inten    --    239.1098                26.5999                20.4413

                     61                     62                     63
                      A                      A                      A
 Frequencies --   3202.5907              3214.6600              3238.3084
 Red. masses --      1.0904                 1.1018                 1.0917
 Frc consts  --      6.5893                 6.7082                 6.7453
 IR Inten    --      0.2575                 5.6818                 2.3535

                     64                     65                     66
                      A                      A                      A
 Frequencies --   3246.1902              3259.4750              3276.5588
 Red. masses --      1.0898                 1.0967                 1.0913
 Frc consts  --      6.7660                 6.8646                 6.9028
 IR Inten    --      2.0376                 0.2364                 1.5198

                     67                     68                     69
                      A                      A                      A
 Frequencies --   3800.4801              3860.8095              3872.3509
 Red. masses --      1.0654                 1.0682                 1.0666
 Frc consts  --      9.0666                 9.3809                 9.4235
 IR Inten    --    360.4914               130.7101               674.8831

 - Thermochemistry -
 -------------------
 Temperature   298.150 Kelvin.  Pressure   1.00000 Atm.
 Atom     1 has atomic number  6 and mass  12.00000

 Molecular mass:   195.06573 amu.
 Principal axes and moments of inertia in atomic units:
                           1         2         3
     Eigenvalues --  1169.441306288.356207443.01490
           X            0.99994   0.01074   0.00017
           Y           -0.01074   0.99994   0.00167
           Z           -0.00015  -0.00167   1.00000
 This molecule is an asymmetric top.
 Rotational symmetry number  1.
 Warning -- assumption of classical behavior for rotation
           may cause significant error
 Rotational temperatures (Kelvin)      0.07406     0.01377     0.01164
 Rotational constants (GHZ):           1.54325     0.28700     0.24247
 Zero-point vibrational energy     525475.2 (Joules/Mol)
                                  125.59158 (Kcal/Mol)
 Warning -- explicit consideration of  22 degrees of freedom as
           vibrations may cause significant error
 Vibrational temperatures:     57.53    80.59   123.99   127.70   192.13
          (Kelvin)            226.64   277.62   299.84   336.44   355.97
                              441.33   467.53   515.39   525.47   620.03
                              661.74   722.60   767.71   823.95   828.54
                              850.21   856.83   922.86  1020.27  1047.51
                             1136.97  1206.43  1213.28  1232.52  1255.99
                             1400.47  1412.22  1446.17  1457.81  1543.09
                             1644.53  1681.57  1691.58  1701.66  1738.60
                             1775.35  1805.42  1865.39  1896.72  1952.40
                             1968.72  2001.32  2082.27  2139.17  2160.28
                             2164.59  2181.19  2200.25  2282.39  2342.59
                             2364.52  2379.79  2449.11  4398.00  4516.42
                             4607.81  4625.17  4659.20  4670.54  4689.65
                             4714.23  5468.04  5554.84  5571.44

 Zero-point correction=                           0.200143 (Hartree/Particle)
 Thermal correction to Energy=                    0.213807
 Thermal correction to Enthalpy=                  0.214752
 Thermal correction to Gibbs Free Energy=         0.159079
 Sum of electronic and zero-point Energies=           -687.934268
 Sum of electronic and thermal Energies=              -687.920603
 Sum of electronic and thermal Enthalpies=            -687.919659
 Sum of electronic and thermal Free Energies=         -687.975331

                     E (Thermal)             CV                S
                      KCal/Mol        Cal/Mol-Kelvin    Cal/Mol-Kelvin
 Total                  134.166             50.801            117.172
 Electronic               0.000              0.000              0.000
 Translational            0.889              2.981             41.710
 Rotational               0.889              2.981             32.371
 Vibrational            132.389             44.839             43.092
 Vibration     1          0.594              1.981              5.260
 Vibration     2          0.596              1.975              4.593
 Vibration     3          0.601              1.959              3.745
 Vibration     4          0.602              1.957              3.687
 Vibration     5          0.613              1.920              2.894
 Vibration     6          0.621              1.894              2.579
 Vibration     7          0.635              1.850              2.199
 Vibration     8          0.642              1.828              2.058
 Vibration     9          0.654              1.789              1.849
 Vibration    10          0.661              1.767              1.749
 Vibration    11          0.697              1.661              1.380
 Vibration    12          0.709              1.626              1.285
 Vibration    13          0.733              1.558              1.130
 Vibration    14          0.738              1.544              1.100
 Vibration    15          0.792              1.403              0.856
 Vibration    16          0.818              1.339              0.766
 Vibration    17          0.858              1.245              0.653
 Vibration    18          0.889              1.176              0.579
 Vibration    19          0.929              1.090              0.499
 Vibration    20          0.932              1.083              0.493
 Vibration    21          0.948              1.051              0.466
 Vibration    22          0.953              1.041              0.457

 Optimization completed.
    -- Stationary point found.
 Normal termination of Gaussian 09 at Tue May 28 18:35:50 2024.
