 Gaussian 09, Revision E.01,
 Gaussian 09:  ES64L-G09RevE.01 30-Nov-2015

 ----------------------------
 # opt freq m062x/aug-cc-pvdz
 ----------------------------

 ----------
 [No Title]
 ----------
 Symbolic Z-matrix:
 Charge =  1 Multiplicity = 1

 SCF Done:  E(RM062X) =  -571.476216541     A.U. after   16 cycles
 SCF Done:  E(RM062X) =  -571.476389954     A.U. after   12 cycles
 SCF Done:  E(RM062X) =  -571.476408836     A.U. after   12 cycles
 SCF Done:  E(RM062X) =  -571.476412227     A.U. after   11 cycles
 SCF Done:  E(RM062X) =  -571.476412443     A.U. after    8 cycles
 Optimization completed.
    -- Stationary point found.
 Normal termination of Gaussian 09 at Sat Dec 14 15:04:03 2024.

 ----------------------------------------------------------------------
 #N Geom=AllCheck Guess=TCheck SCRF=Check GenChk RM062X/Aug-CC-pVDZ Fre
 q
 ----------------------------------------------------------------------

 Structure from the checkpoint file:  "pvdzDHByang.chk"
 ----------
 [No Title]
 ----------
 Charge =  1 Multiplicity = 1

                         Standard orientation:
 ---------------------------------------------------------------------
 Center     Atomic      Atomic             Coordinates (Angstroms)
 Number     Number       Type             X           Y           Z
 ---------------------------------------------------------------------
      1          6           0        0.220010    1.268791   -0.000004
      2          6           0        0.418298   -0.137576   -0.000003
      3          6           0       -0.695662   -1.017672    0.000008
      4          6           0       -1.978836   -0.515886    0.000016
      5          6           0       -2.167778    0.881967    0.000013
      6          6           0       -1.093481    1.753042    0.000003
      7          8           0       -2.999803   -1.400115    0.000027
      8          6           0        1.720752   -0.714297   -0.000015
      9          8           0        1.811231   -2.015346   -0.000042
     10          8           0        2.779507    0.034440    0.000015
     11          8           0        1.281060    2.084569   -0.000014
     12          1           0       -0.550269   -2.094658    0.000011
     13          1           0       -3.180278    1.288744    0.000020
     14          1           0       -1.266216    2.828762    0.000001
     15          1           0       -3.855464   -0.955582    0.000025
     16          1           0        2.714266   -2.369055   -0.000002
     17          1           0        3.623085   -0.445793   -0.000025
     18          1           0        0.999093    3.008982   -0.000022
 ---------------------------------------------------------------------

 SCF Done:  E(RM062X) =  -571.476412443     A.U. after    1 cycles

 The electronic state is 1-A.
 Alpha  occ. eigenvalues --  -19.91370 -19.91303 -19.84164 -19.80932 -10.92475
 Alpha  occ. eigenvalues --  -10.80046 -10.76724 -10.74519 -10.72979 -10.71993
 Alpha  occ. eigenvalues --  -10.71794  -1.48455  -1.39860  -1.36345  -1.32935
 Alpha  occ. eigenvalues --   -1.13479  -1.06422  -1.00352  -0.96940  -0.92173
 Alpha  occ. eigenvalues --   -0.88074  -0.86499  -0.81457  -0.78671  -0.76576
 Alpha  occ. eigenvalues --   -0.76196  -0.74029  -0.69777  -0.67311  -0.66530
 Alpha  occ. eigenvalues --   -0.65497  -0.64919  -0.64237  -0.63860  -0.62928
 Alpha  occ. eigenvalues --   -0.58965  -0.56488  -0.54453  -0.48848  -0.42059
 Alpha virt. eigenvalues --   -0.22385  -0.16000  -0.12389  -0.11403  -0.10616
 Alpha virt. eigenvalues --   -0.09611  -0.09151  -0.09143  -0.08120  -0.07249
 Alpha virt. eigenvalues --   -0.05927  -0.04803  -0.04599  -0.04444  -0.03273

 Mulliken charges:
               1
     1  C    0.196720
     2  C    1.517621
     3  C    1.007111
     4  C   -0.123833
     5  C    0.640972
     6  C    1.018309
     7  O   -0.577023
     8  C    0.555884
     9  O   -0.452910
    10  O   -0.479111
    11  O   -0.588004
    12  H   -0.970726
    13  H   -0.844835
    14  H   -0.949982
    15  H    0.211378
    16  H    0.295189
    17  H    0.280598
    18  H    0.262642
 Sum of Mulliken charges =   1.00000

 Dipole moment (field-independent basis, Debye):
    X=              3.9794    Y=              0.2080    Z=             -0.0000  Tot=              3.9849
 Quadrupole moment (field-independent basis, Debye-Ang):
   XX=            -14.4298   YY=            -40.1944   ZZ=            -63.7344
   XY=            -16.5603   XZ=             -0.0003   YZ=             -0.0001

  Exact polarizability: 138.177  -9.036 113.981  -0.001   0.000  51.270
 Approx polarizability: 170.237  -9.213 152.521  -0.001   0.000  70.423

                      1                      2                      3
                      A                      A                      A
 Frequencies --     71.2157               113.6737               170.2941
 Red. masses --     10.1568                 4.9859                 5.3577
 Frc consts  --      0.0304                 0.0380                 0.0915
 IR Inten    --      0.0112                11.3480                 8.8699

                      4                      5                      6
                      A                      A                      A
 Frequencies --    208.7733               337.3590               360.9136
 Red. masses --      6.3977                 6.3759                 3.5128
 Frc consts  --      0.1643                 0.4275                 0.2696
 IR Inten    --      8.8580                 0.3932                33.0935

                      7                      8                      9
                      A                      A                      A
 Frequencies --    375.3345               392.7919               399.8387
 Red. masses --      1.2133                 7.6992                 1.1313
 Frc consts  --      0.1007                 0.6999                 0.1066
 IR Inten    --     84.4736                 0.6240                 7.1132

                     10                     11                     12
                      A                      A                      A
 Frequencies --    411.4841               448.9383               474.6123
 Red. masses --      5.9630                 2.3083                 1.1789
 Frc consts  --      0.5949                 0.2741                 0.1565
 IR Inten    --      0.6005                24.1283                69.4729

                     13                     14                     15
                      A                      A                      A
 Frequencies --    477.4820               548.8590               562.8271
 Red. masses --      7.8542                 1.8397                 4.0915
 Frc consts  --      1.0550                 0.3265                 0.7636
 IR Inten    --      2.1169                 1.7220                16.3928

                     16                     17                     18
                      A                      A                      A
 Frequencies --    583.6092               657.1877               711.6827
 Red. masses --      1.4646                 4.4627                 4.1783
 Frc consts  --      0.2939                 1.1356                 1.2469
 IR Inten    --    261.9051                48.1235                 1.4268

                     19                     20                     21
                      A                      A                      A
 Frequencies --    739.1596               798.3207               815.5399
 Red. masses --      5.2029                 4.6758                 5.6404
 Frc consts  --      1.6748                 1.7557                 2.2103
 IR Inten    --     20.5567                 2.5000                30.5689

                     22                     23                     24
                      A                      A                      A
 Frequencies --    864.6035               927.5498               977.6829
 Red. masses --      1.6861                 1.6749                 4.2297
 Frc consts  --      0.7426                 0.8490                 2.3821
 IR Inten    --     43.3426                10.8544                21.4732

                     25                     26                     27
                      A                      A                      A
 Frequencies --    992.1375              1110.5119              1144.6246
 Red. masses --      1.3991                 2.9258                 1.1123
 Frc consts  --      0.8114                 2.1259                 0.8586
 IR Inten    --      0.8400                67.7443               176.3688

                     28                     29                     30
                      A                      A                      A
 Frequencies --   1172.2819              1193.3841              1202.8514
 Red. masses --      1.4909                 1.4990                 1.3315
 Frc consts  --      1.2072                 1.2578                 1.1351
 IR Inten    --     57.6112               296.2056               211.6753

                     31                     32                     33
                      A                      A                      A
 Frequencies --   1228.7694              1302.8089              1339.9495
 Red. masses --      1.2795                 1.9158                 4.9873
 Frc consts  --      1.1383                 1.9158                 5.2758
 IR Inten    --    194.4831                26.6380               123.4117

                     34                     35                     36
                      A                      A                      A
 Frequencies --   1342.2122              1436.8271              1480.1478
 Red. masses --      1.8135                 4.2444                 3.4507
 Frc consts  --      1.9249                 5.1627                 4.4542
 IR Inten    --    247.8716                75.0346                 9.4997

                     37                     38                     39
                      A                      A                      A
 Frequencies --   1535.7079              1578.5489              1628.8024
 Red. masses --      4.1758                 5.5594                 4.2374
 Frc consts  --      5.8024                 8.1619                 6.6234
 IR Inten    --     21.3485               545.7166               780.2859

                     40                     41                     42
                      A                      A                      A
 Frequencies --   1660.1785              1721.3799              3190.5414
 Red. masses --      6.5412                 6.7375                 1.0904
 Frc consts  --     10.6222                11.7625                 6.5400
 IR Inten    --     90.5012                33.3401                 1.4546

                     43                     44                     45
                      A                      A                      A
 Frequencies --   3203.6481              3238.8740              3767.2525
 Red. masses --      1.0983                 1.0935                 1.0682
 Frc consts  --      6.6417                 6.7587                 8.9323
 IR Inten    --      2.2010                10.6430                86.8679

                     46                     47                     48
                      A                      A                      A
 Frequencies --   3785.4365              3842.2480              3863.0395
 Red. masses --      1.0666                 1.0668                 1.0671
 Frc consts  --      9.0050                 9.2789                 9.3825
 IR Inten    --    566.6548               187.9908               153.8166

 - Thermochemistry -
 -------------------
 Temperature   298.150 Kelvin.  Pressure   1.00000 Atm.
 Atom     1 has atomic number  6 and mass  12.00000

 Molecular mass:   155.03443 amu.
 Principal axes and moments of inertia in atomic units:
                           1         2         3
     Eigenvalues --  1011.234171988.874823000.10899
           X            0.99959  -0.02856   0.00001
           Y            0.02856   0.99959  -0.00000
           Z           -0.00001   0.00000   1.00000
 This molecule is an asymmetric top.
 Rotational symmetry number  1.
 Warning -- assumption of classical behavior for rotation
           may cause significant error
 Rotational temperatures (Kelvin)      0.08565     0.04355     0.02887
 Rotational constants (GHZ):           1.78469     0.90742     0.60156
 Zero-point vibrational energy     361223.8 (Joules/Mol)
                                   86.33455 (Kcal/Mol)
 Warning -- explicit consideration of  16 degrees of freedom as
           vibrations may cause significant error
 Vibrational temperatures:    102.46   163.55   245.01   300.38   485.38
          (Kelvin)            519.27   540.02   565.14   575.28   592.03
                              645.92   682.86   686.99   789.68   809.78
                              839.68   945.55  1023.95  1063.48  1148.60
                             1173.38  1243.97  1334.54  1406.67  1427.46
                             1597.78  1646.86  1686.65  1717.01  1730.63
                             1767.92  1874.45  1927.89  1931.14  2067.27
                             2129.60  2209.54  2271.18  2343.48  2388.62
                             2476.68  4590.47  4609.33  4660.01  5420.23
                             5446.39  5528.13  5558.05

 Zero-point correction=                           0.137583 (Hartree/Particle)
 Thermal correction to Energy=                    0.147193
 Thermal correction to Enthalpy=                  0.148137
 Thermal correction to Gibbs Free Energy=         0.102859
 Sum of electronic and zero-point Energies=           -571.338830
 Sum of electronic and thermal Energies=              -571.329220
 Sum of electronic and thermal Enthalpies=            -571.328275
 Sum of electronic and thermal Free Energies=         -571.373553

                     E (Thermal)             CV                S
                      KCal/Mol        Cal/Mol-Kelvin    Cal/Mol-Kelvin
 Total                   92.365             37.662             95.295
 Electronic               0.000              0.000              0.000
 Translational            0.889              2.981             41.025
 Rotational               0.889              2.981             30.180
 Vibrational             90.587             31.701             24.090
 Vibration     1          0.598              1.968              4.119
 Vibration     2          0.607              1.938              3.205
 Vibration     3          0.625              1.879              2.432
 Vibration     4          0.642              1.827              2.054
 Vibration     5          0.718              1.601              1.225
 Vibration     6          0.735              1.553              1.118
 Vibration     7          0.746              1.523              1.058
 Vibration     8          0.760              1.486              0.990
 Vibration     9          0.766              1.470              0.963
 Vibration    10          0.775              1.445              0.921
 Vibration    11          0.808              1.363              0.799
 Vibration    12          0.831              1.306              0.725
 Vibration    13          0.834              1.300              0.717
 Vibration    14          0.904              1.142              0.547
 Vibration    15          0.919              1.112              0.518
 Vibration    16          0.940              1.067              0.479

 Optimization completed.
    -- Stationary point found.
 Normal termination of Gaussian 09 at Sat Dec 14 15:08:21 2024.
