 Gaussian 09, Revision E.01,
 Gaussian 09:  ES64L-G09RevE.01 30-Nov-2015

 ----------------------------
 # opt freq m062x/aug-cc-pvdz
 ----------------------------

 ----------
 [No Title]
 ----------
 Symbolic Z-matrix:
 Charge =  0 Multiplicity = 1

 SCF Done:  E(RM062X) =  -571.146984347     A.U. after   16 cycles
 SCF Done:  E(RM062X) =  -571.147048876     A.U. after   11 cycles
 SCF Done:  E(RM062X) =  -571.147049851     A.U. after   11 cycles
 SCF Done:  E(RM062X) =  -571.147048287     A.U. after   11 cycles
 SCF Done:  E(RM062X) =  -571.147051762     A.U. after   11 cycles
 Optimization completed.
    -- Stationary point found.
 Normal termination of Gaussian 09 at Sat Dec 14 13:40:42 2024.

 ----------------------------------------------------------------------
 #N Geom=AllCheck Guess=TCheck SCRF=Check GenChk RM062X/Aug-CC-pVDZ Fre
 q
 ----------------------------------------------------------------------

 Structure from the checkpoint file:  "pvdzm062xDHB.chk"
 ----------
 [No Title]
 ----------
 Charge =  0 Multiplicity = 1

                         Standard orientation:
 ---------------------------------------------------------------------
 Center     Atomic      Atomic             Coordinates (Angstroms)
 Number     Number       Type             X           Y           Z
 ---------------------------------------------------------------------
      1          6           0        0.232789    1.269214    0.000007
      2          6           0        0.463116   -0.119534    0.000014
      3          6           0       -0.627406   -0.997333    0.000020
      4          6           0       -1.931991   -0.520987    0.000012
      5          6           0       -2.159648    0.854954    0.000002
      6          6           0       -1.084106    1.736055    0.000004
      7          8           0       -2.942260   -1.443912    0.000003
      8          6           0        1.847258   -0.671142    0.000012
      9          8           0        1.854438   -2.028904    0.000057
     10          8           0        2.871016   -0.036900   -0.000141
     11          8           0        1.282374    2.129262    0.000012
     12          1           0       -0.458208   -2.070541    0.000030
     13          1           0       -3.178443    1.244957   -0.000008
     14          1           0       -1.267851    2.810991   -0.000000
     15          1           0       -3.793037   -0.993957    0.000095
     16          1           0        2.787104   -2.286900   -0.000012
     17          1           0        0.945819    3.031721    0.000023
 ---------------------------------------------------------------------

 SCF Done:  E(RM062X) =  -571.147051762     A.U. after    2 cycles

 The electronic state is 1-A.
 Alpha  occ. eigenvalues --  -19.68599 -19.68176 -19.68092 -19.63197 -10.68811
 Alpha  occ. eigenvalues --  -10.63160 -10.62226 -10.57773 -10.57706 -10.57231
 Alpha  occ. eigenvalues --  -10.56657  -1.23666  -1.19918  -1.19573  -1.13891
 Alpha  occ. eigenvalues --   -0.97497  -0.88200  -0.84840  -0.76379  -0.72917
 Alpha  occ. eigenvalues --   -0.69416  -0.64017  -0.62884  -0.58691  -0.57206
 Alpha  occ. eigenvalues --   -0.56123  -0.53992  -0.52570  -0.50596  -0.49895
 Alpha  occ. eigenvalues --   -0.49681  -0.48593  -0.47127  -0.44804  -0.42755
 Alpha  occ. eigenvalues --   -0.39749  -0.39359  -0.34931  -0.32947  -0.27372
 Alpha virt. eigenvalues --   -0.02655  -0.01423  -0.00468   0.00356   0.01729
 Alpha virt. eigenvalues --    0.02224   0.02843   0.04184   0.04554   0.05694
 Alpha virt. eigenvalues --    0.06477   0.07040   0.07686   0.07697   0.08251

 Mulliken charges:
               1
     1  C    0.023205
     2  C    1.470530
     3  C    1.050568
     4  C   -0.160222
     5  C    0.720052
     6  C    1.060840
     7  O   -0.585098
     8  C    0.397547
     9  O   -0.574969
    10  O   -0.559381
    11  O   -0.581744
    12  H   -0.982982
    13  H   -0.916404
    14  H   -1.021978
    15  H    0.174412
    16  H    0.285227
    17  H    0.200397
 Sum of Mulliken charges =  -0.00000

 Dipole moment (field-independent basis, Debye):
    X=             -3.5490    Y=              1.5857    Z=              0.0003  Tot=              3.8872
 Quadrupole moment (field-independent basis, Debye-Ang):
   XX=            -58.0789   YY=            -52.9662   ZZ=            -65.5653
   XY=             -9.9173   XZ=             -0.0000   YZ=              0.0002

  Exact polarizability: 128.949  -0.617 111.906  -0.001   0.002  55.589
 Approx polarizability: 158.300   4.422 147.302  -0.002  -0.001  75.753

                      1                      2                      3
                      A                      A                      A
 Frequencies --     38.8916               124.6795               179.4868
 Red. masses --     11.4869                 5.3790                 5.5061
 Frc consts  --      0.0102                 0.0493                 0.1045
 IR Inten    --      2.2434                 1.9145                 3.0274

                      4                      5                      6
                      A                      A                      A
 Frequencies --    205.9269               331.0341               344.4823
 Red. masses --      7.6837                 6.9273                 1.0965
 Frc consts  --      0.1920                 0.4473                 0.0767
 IR Inten    --      2.5413                 0.6988                94.8473

                      7                      8                      9
                      A                      A                      A
 Frequencies --    378.5433               398.8321               398.9811
 Red. masses --      3.5728                 9.5686                 1.2689
 Frc consts  --      0.3016                 0.8968                 0.1190
 IR Inten    --     15.2561                 3.0962                78.2615

                     10                     11                     12
                      A                      A                      A
 Frequencies --    404.0961               449.4461               484.0511
 Red. masses --      6.2517                 3.1232                 7.9584
 Frc consts  --      0.6015                 0.3717                 1.0986
 IR Inten    --      1.1683                 1.9218                 0.9335

                     13                     14                     15
                      A                      A                      A
 Frequencies --    547.7083               560.2169               624.0427
 Red. masses --      4.0753                 2.3683                 1.2671
 Frc consts  --      0.7203                 0.4379                 0.2907
 IR Inten    --     32.2014                 5.1217               111.7961

                     16                     17                     18
                      A                      A                      A
 Frequencies --    671.3364               726.1044               741.7055
 Red. masses --      5.2963                 3.4465                 5.4202
 Frc consts  --      1.4064                 1.0706                 1.7568
 IR Inten    --     40.2261                11.2870                30.2822

                     19                     20                     21
                      A                      A                      A
 Frequencies --    807.6991               814.8705               846.3069
 Red. masses --      5.6754                 2.5233                 2.4430
 Frc consts  --      2.1815                 0.9872                 1.0309
 IR Inten    --     44.6480                 0.2614                58.8808

                     22                     23                     24
                      A                      A                      A
 Frequencies --    948.0777               960.8084               969.7909
 Red. masses --      1.6589                 1.3930                 4.8906
 Frc consts  --      0.8785                 0.7577                 2.7100
 IR Inten    --      3.6321                 5.4187                12.0241

                     25                     26                     27
                      A                      A                      A
 Frequencies --   1077.2880              1157.4114              1187.7748
 Red. masses --      3.1429                 1.3246                 1.6795
 Frc consts  --      2.1490                 1.0455                 1.3960
 IR Inten    --     70.3593                13.0515               127.9328

                     28                     29                     30
                      A                      A                      A
 Frequencies --   1203.5383              1224.9504              1285.6944
 Red. masses --      1.3676                 1.3554                 2.0255
 Frc consts  --      1.1672                 1.1983                 1.9726
 IR Inten    --    305.3826                74.0331                43.2816

                     31                     32                     33
                      A                      A                      A
 Frequencies --   1330.7398              1336.1117              1377.6472
 Red. masses --      1.9385                 3.4014                 2.7039
 Frc consts  --      2.0226                 3.5776                 3.0235
 IR Inten    --    172.2108                92.1682                82.8354

                     34                     35                     36
                      A                      A                      A
 Frequencies --   1404.0221              1510.8630              1558.4814
 Red. masses --      4.1008                 3.5758                 3.6311
 Frc consts  --      4.7628                 4.8091                 5.1963
 IR Inten    --     44.0472                33.1284               212.1606

                     37                     38                     39
                      A                      A                      A
 Frequencies --   1691.4156              1715.2997              1862.8058
 Red. masses --      7.0834                 7.1996                10.1738
 Frc consts  --     11.9397                12.4807                20.8002
 IR Inten    --     58.5364                 3.8310               399.9523

                     40                     41                     42
                      A                      A                      A
 Frequencies --   3173.8030              3189.5993              3237.6183
 Red. masses --      1.0886                 1.0974                 1.0925
 Frc consts  --      6.4605                 6.5778                 6.7473
 IR Inten    --     11.9426                 4.2327                 4.5351

                     43                     44                     45
                      A                      A                      A
 Frequencies --   3840.0952              3878.0973              3890.5698
 Red. masses --      1.0649                 1.0664                 1.0665
 Frc consts  --      9.2518                 9.4490                 9.5114
 IR Inten    --    122.0804                79.9173                83.4703

 - Thermochemistry -
 -------------------
 Temperature   298.150 Kelvin.  Pressure   1.00000 Atm.
 Atom     1 has atomic number  6 and mass  12.00000

 Molecular mass:   154.02661 amu.
 Principal axes and moments of inertia in atomic units:
                           1         2         3
     Eigenvalues --  1021.232551966.275242987.50779
           X            0.99972  -0.02381   0.00001
           Y            0.02381   0.99972   0.00001
           Z           -0.00001  -0.00001   1.00000
 This molecule is an asymmetric top.
 Rotational symmetry number  1.
 Warning -- assumption of classical behavior for rotation
           may cause significant error
 Rotational temperatures (Kelvin)      0.08481     0.04405     0.02899
 Rotational constants (GHZ):           1.76722     0.91785     0.60410
 Zero-point vibrational energy     329517.0 (Joules/Mol)
                                   78.75646 (Kcal/Mol)
 Warning -- explicit consideration of  14 degrees of freedom as
           vibrations may cause significant error
 Vibrational temperatures:     55.96   179.39   258.24   296.28   476.28
          (Kelvin)            495.63   544.64   573.83   574.04   581.40
                              646.65   696.44   788.03   806.03   897.86
                              965.90  1044.70  1067.15  1162.10  1172.42
                             1217.65  1364.07  1382.39  1395.31  1549.98
                             1665.25  1708.94  1731.62  1762.43  1849.83
                             1914.64  1922.36  1982.12  2020.07  2173.79
                             2242.30  2433.57  2467.93  2680.16  4566.39
                             4589.12  4658.20  5525.03  5579.71  5597.66

 Zero-point correction=                           0.125506 (Hartree/Particle)
 Thermal correction to Energy=                    0.134887
 Thermal correction to Enthalpy=                  0.135831
 Thermal correction to Gibbs Free Energy=         0.090480
 Sum of electronic and zero-point Energies=           -571.021545
 Sum of electronic and thermal Energies=              -571.012165
 Sum of electronic and thermal Enthalpies=            -571.011220
 Sum of electronic and thermal Free Energies=         -571.056572

                     E (Thermal)             CV                S
                      KCal/Mol        Cal/Mol-Kelvin    Cal/Mol-Kelvin
 Total                   84.643             36.117             95.450
 Electronic               0.000              0.000              0.000
 Translational            0.889              2.981             41.006
 Rotational               0.889              2.981             30.174
 Vibrational             82.866             30.155             24.271
 Vibration     1          0.594              1.981              5.315
 Vibration     2          0.610              1.928              3.027
 Vibration     3          0.629              1.867              2.334
 Vibration     4          0.640              1.831              2.079
 Vibration     5          0.713              1.614              1.255
 Vibration     6          0.723              1.586              1.191
 Vibration     7          0.749              1.516              1.045
 Vibration     8          0.765              1.473              0.967
 Vibration     9          0.765              1.472              0.966
 Vibration    10          0.769              1.461              0.948
 Vibration    11          0.808              1.362              0.797
 Vibration    12          0.840              1.285              0.699
 Vibration    13          0.903              1.145              0.549
 Vibration    14          0.916              1.117              0.523

 Optimization completed.
    -- Stationary point found.
 Normal termination of Gaussian 09 at Sat Dec 14 13:44:56 2024.
