 Gaussian 09, Revision E.01,
 Gaussian 09:  ES64L-G09RevE.01 30-Nov-2015

 ------------------------
 # opt freq m062x/cc-pvtz
 ------------------------

 ----------
 [No Title]
 ----------
 Symbolic Z-matrix:
 Charge =  0 Multiplicity = 1

 SCF Done:  E(RM062X) =  -512.090085288     A.U. after   15 cycles
 SCF Done:  E(RM062X) =  -512.090500603     A.U. after   11 cycles
 SCF Done:  E(RM062X) =  -512.090509029     A.U. after   11 cycles
 SCF Done:  E(RM062X) =  -512.090525520     A.U. after   10 cycles
 SCF Done:  E(RM062X) =  -512.090526318     A.U. after    9 cycles
 SCF Done:  E(RM062X) =  -512.090529331     A.U. after    8 cycles
 Optimization completed.
    -- Stationary point found.
 Normal termination of Gaussian 09 at Thu Dec 19 17:48:50 2024.

 -------------------------------------------------------------------
 #N Geom=AllCheck Guess=TCheck SCRF=Check GenChk RM062X/CC-pVTZ Freq
 -------------------------------------------------------------------

 Structure from the checkpoint file:  "ccpvTZ3HPA.chk"
 ----------
 [No Title]
 ----------
 Charge =  0 Multiplicity = 1

                         Standard orientation:
 ---------------------------------------------------------------------
 Center     Atomic      Atomic             Coordinates (Angstroms)
 Number     Number       Type             X           Y           Z
 ---------------------------------------------------------------------
      1          7           0       -0.432881   -1.436978    0.000043
      2          6           0       -1.748857   -1.477630    0.000038
      3          6           0       -2.537167   -0.322326    0.000012
      4          6           0       -1.926584    0.908420   -0.000008
      5          6           0       -0.530924    0.969242   -0.000002
      6          6           0        0.170272   -0.246344    0.000026
      7          6           0        1.650396   -0.216125    0.000030
      8          8           0        2.294764    0.816793   -0.000090
      9          8           0        2.233028   -1.407578    0.000003
     10          8           0        0.055137    2.168317   -0.000017
     11          1           0       -2.206098   -2.459227    0.000049
     12          1           0       -3.615392   -0.403101    0.000007
     13          1           0       -2.485226    1.833940   -0.000029
     14          1           0        3.187517   -1.252119   -0.000059
     15          1           0        1.023114    2.027672   -0.000016
 ---------------------------------------------------------------------

 SCF Done:  E(RM062X) =  -512.090529331     A.U. after    1 cycles

 The electronic state is 1-A.
 Alpha  occ. eigenvalues --  -19.68625 -19.65800 -19.63868 -14.76612 -10.69893
 Alpha  occ. eigenvalues --  -10.63327 -10.59732 -10.58253 -10.57026 -10.56750
 Alpha  occ. eigenvalues --   -1.26232  -1.20482  -1.16016  -1.07478  -0.92093
 Alpha  occ. eigenvalues --   -0.88582  -0.78674  -0.73267  -0.71951  -0.63892
 Alpha  occ. eigenvalues --   -0.63109  -0.60535  -0.57519  -0.56642  -0.55521
 Alpha  occ. eigenvalues --   -0.51393  -0.50456  -0.49102  -0.47947  -0.46665
 Alpha  occ. eigenvalues --   -0.45739  -0.41827  -0.38868  -0.35767  -0.33702
 Alpha  occ. eigenvalues --   -0.30520
 Alpha virt. eigenvalues --   -0.03720   0.01247   0.06589   0.07693   0.08034
 Alpha virt. eigenvalues --    0.11065   0.12225   0.13672   0.19185   0.20833
 Alpha virt. eigenvalues --    0.21602   0.22493   0.24823   0.26686   0.29155

 Mulliken charges:
               1
     1  N   -0.164860
     2  C   -0.084252
     3  C   -0.064032
     4  C   -0.170490
     5  C    0.220091
     6  C   -0.081766
     7  C    0.373785
     8  O   -0.383136
     9  O   -0.266381
    10  O   -0.327135
    11  H    0.133243
    12  H    0.129756
    13  H    0.132339
    14  H    0.268323
    15  H    0.284516
 Sum of Mulliken charges =  -0.00000

 Dipole moment (field-independent basis, Debye):
    X=             -1.0610    Y=             -0.4496    Z=              0.0001  Tot=              1.1523
 Quadrupole moment (field-independent basis, Debye-Ang):
   XX=            -43.2868   YY=            -61.0857   ZZ=            -57.7596
   XY=             -2.2933   XZ=              0.0001   YZ=              0.0003

  Exact polarizability: 111.349   3.564  90.965  -0.001  -0.001  42.094
 Approx polarizability: 135.185   7.059 127.958  -0.001  -0.002  59.071

                      1                      2                      3
                      A                      A                      A
 Frequencies --     85.2125               140.7557               246.3465
 Red. masses --      9.5968                 5.7339                 6.4900
 Frc consts  --      0.0411                 0.0669                 0.2321
 IR Inten    --      1.0223                 2.6546                 3.1840

                      4                      5                      6
                      A                      A                      A
 Frequencies --    259.7342               364.6439               440.8374
 Red. masses --      4.8607                 7.3919                 9.5224
 Frc consts  --      0.1932                 0.5791                 1.0903
 IR Inten    --      1.7611                10.9018                 3.0659

                      7                      8                      9
                      A                      A                      A
 Frequencies --    445.4256               535.1285               562.6866
 Red. masses --      3.7756                 5.5950                 3.6067
 Frc consts  --      0.4413                 0.9440                 0.6728
 IR Inten    --      0.5568                 3.2300                 0.6073

                     10                     11                     12
                      A                      A                      A
 Frequencies --    582.7288               615.3923               662.4869
 Red. masses --      7.5388                 1.2400                 6.3073
 Frc consts  --      1.5083                 0.2767                 1.6310
 IR Inten    --      6.8007                73.6357                69.2297

                     13                     14                     15
                      A                      A                      A
 Frequencies --    741.7779               747.4661               775.1678
 Red. masses --      1.4052                 1.8779                 4.4837
 Frc consts  --      0.4555                 0.6182                 1.5874
 IR Inten    --      8.0623               148.8382                33.4617

                     16                     17                     18
                      A                      A                      A
 Frequencies --    843.0289               852.0288               884.4644
 Red. masses --      1.4738                 8.4788                 6.9021
 Frc consts  --      0.6171                 3.6265                 3.1812
 IR Inten    --     22.5108                18.1679                10.1717

                     19                     20                     21
                      A                      A                      A
 Frequencies --    960.3244              1025.9142              1083.4215
 Red. masses --      1.4092                 1.3587                 2.3384
 Frc consts  --      0.7657                 0.8425                 1.6172
 IR Inten    --      0.8931                 0.8172                 4.4625

                     22                     23                     24
                      A                      A                      A
 Frequencies --   1126.5044              1158.2055              1205.1008
 Red. masses --      2.6709                 1.4708                 2.2208
 Frc consts  --      1.9970                 1.1625                 1.9002
 IR Inten    --     51.0875                 1.1120               402.8783

                     25                     26                     27
                      A                      A                      A
 Frequencies --   1279.6505              1305.4827              1359.4724
 Red. masses --      1.7153                 2.6623                 3.3991
 Frc consts  --      1.6549                 2.6733                 3.7013
 IR Inten    --      2.6486                31.8212               103.2192

                     28                     29                     30
                      A                      A                      A
 Frequencies --   1372.7918              1471.6527              1507.3202
 Red. masses --      1.5422                 3.1274                 3.4443
 Frc consts  --      1.7124                 3.9907                 4.6107
 IR Inten    --     28.7092               171.0782               205.8676

                     31                     32                     33
                      A                      A                      A
 Frequencies --   1525.0563              1653.2721              1681.9633
 Red. masses --      3.0772                 4.9866                 7.4371
 Frc consts  --      4.2167                 8.0304                12.3962
 IR Inten    --      8.9134                20.1598                 6.2231

                     34                     35                     36
                      A                      A                      A
 Frequencies --   1796.0621              3170.2358              3204.2299
 Red. masses --      8.4892                 1.0907                 1.0907
 Frc consts  --     16.1346                 6.4583                 6.5977
 IR Inten    --    364.3041                 8.3659                 5.1519

                     37                     38                     39
                      A                      A                      A
 Frequencies --   3219.2900              3505.2327              3815.1137
 Red. masses --      1.0978                 1.0672                 1.0643
 Frc consts  --      6.7036                 7.7254                 9.1270
 IR Inten    --      1.2443               357.8673               135.5569

 - Thermochemistry -
 -------------------
 Temperature   298.150 Kelvin.  Pressure   1.00000 Atm.
 Atom     1 has atomic number  7 and mass  14.00307

 Molecular mass:   139.02694 amu.
 Principal axes and moments of inertia in atomic units:
                           1         2         3
     Eigenvalues --   756.212411417.872762174.08516
           X            1.00000   0.00218   0.00001
           Y           -0.00218   1.00000   0.00002
           Z           -0.00001  -0.00002   1.00000
 This molecule is an asymmetric top.
 Rotational symmetry number  1.
 Warning -- assumption of classical behavior for rotation
           may cause significant error
 Rotational temperatures (Kelvin)      0.11454     0.06109     0.03984
 Rotational constants (GHZ):           2.38655     1.27285     0.83012
 Zero-point vibrational energy     288369.5 (Joules/Mol)
                                   68.92196 (Kcal/Mol)
 Warning -- explicit consideration of  11 degrees of freedom as
           vibrations may cause significant error
 Vibrational temperatures:    122.60   202.52   354.44   373.70   524.64
          (Kelvin)            634.27   640.87   769.93   809.58   838.42
                              885.41   953.17  1067.25  1075.44  1115.29
                             1212.93  1225.88  1272.55  1381.69  1476.06
                             1558.80  1620.79  1666.40  1733.87  1841.13
                             1878.30  1955.98  1975.14  2117.38  2168.69
                             2194.21  2378.69  2419.97  2584.13  4561.26
                             4610.17  4631.83  5043.24  5489.09

 Zero-point correction=                           0.109834 (Hartree/Particle)
 Thermal correction to Energy=                    0.117459
 Thermal correction to Enthalpy=                  0.118404
 Thermal correction to Gibbs Free Energy=         0.077165
 Sum of electronic and zero-point Energies=           -511.980695
 Sum of electronic and thermal Energies=              -511.973070
 Sum of electronic and thermal Enthalpies=            -511.972126
 Sum of electronic and thermal Free Energies=         -512.013364

                     E (Thermal)             CV                S
                      KCal/Mol        Cal/Mol-Kelvin    Cal/Mol-Kelvin
 Total                   73.707             29.393             86.794
 Electronic               0.000              0.000              0.000
 Translational            0.889              2.981             40.700
 Rotational               0.889              2.981             29.235
 Vibrational             71.929             23.432             16.859
 Vibration     1          0.601              1.959              3.767
 Vibration     2          0.615              1.913              2.794
 Vibration     3          0.661              1.769              1.757
 Vibration     4          0.668              1.746              1.664
 Vibration     5          0.738              1.545              1.102
 Vibration     6          0.801              1.381              0.824
 Vibration     7          0.805              1.371              0.810
 Vibration     8          0.890              1.172              0.576
 Vibration     9          0.918              1.112              0.518
 Vibration    10          0.940              1.069              0.480
 Vibration    11          0.975              0.999              0.424

 Optimization completed.
    -- Stationary point found.
 Normal termination of Gaussian 09 at Thu Dec 19 17:52:34 2024.
