 Gaussian 09, Revision E.01,
 Gaussian 09:  ES64L-G09RevE.01 30-Nov-2015

 ------------------------
 # opt freq m062x/cc-pvtz
 ------------------------

 ----------
 [No Title]
 ----------
 Symbolic Z-matrix:
 Charge =  1 Multiplicity = 1

 SCF Done:  E(RM062X) =  -512.447156271     A.U. after   15 cycles
 SCF Done:  E(RM062X) =  -512.447596058     A.U. after   11 cycles
 SCF Done:  E(RM062X) =  -512.447603959     A.U. after    8 cycles
 SCF Done:  E(RM062X) =  -512.447606352     A.U. after    8 cycles
 SCF Done:  E(RM062X) =  -512.447605428     A.U. after    8 cycles
 SCF Done:  E(RM062X) =  -512.447606743     A.U. after    8 cycles
 Optimization completed.
    -- Stationary point found.
 Normal termination of Gaussian 09 at Thu Dec 19 17:39:20 2024.

 -------------------------------------------------------------------
 #N Geom=AllCheck Guess=TCheck SCRF=Check GenChk RM062X/CC-pVTZ Freq
 -------------------------------------------------------------------

 Structure from the checkpoint file:  "ccpvTZ3HPA2.chk"
 ----------
 [No Title]
 ----------
 Charge =  1 Multiplicity = 1

                         Standard orientation:
 ---------------------------------------------------------------------
 Center     Atomic      Atomic             Coordinates (Angstroms)
 Number     Number       Type             X           Y           Z
 ---------------------------------------------------------------------
      1          7           0       -0.507373   -1.342578   -0.000047
      2          6           0       -1.828448   -1.412732   -0.000024
      3          6           0       -2.554922   -0.225337    0.000047
      4          6           0       -1.889387    0.974975    0.000090
      5          6           0       -0.480524    1.018812    0.000062
      6          6           0        0.200426   -0.192009   -0.000008
      7          6           0        1.674040   -0.422505   -0.000047
      8          8           0        2.132985   -1.524055   -0.000133
      9          8           0        2.367070    0.715520   -0.000029
     10          8           0        0.088998    2.209527    0.000106
     11          1           0        0.066337   -2.189000   -0.000099
     12          1           0       -2.274144   -2.395885   -0.000062
     13          1           0       -3.633842   -0.264390    0.000068
     14          1           0       -2.421475    1.917320    0.000146
     15          1           0        3.318811    0.521582   -0.000078
     16          1           0        1.056384    2.153250    0.000082
 ---------------------------------------------------------------------

 SCF Done:  E(RM062X) =  -512.447606743     A.U. after    1 cycles

 The electronic state is 1-A.
 Alpha  occ. eigenvalues --  -19.86319 -19.84139 -19.80609 -15.04513 -10.87469
 Alpha  occ. eigenvalues --  -10.82867 -10.80699 -10.80478 -10.76120 -10.75794
 Alpha  occ. eigenvalues --   -1.43436  -1.38897  -1.34690  -1.32204  -1.12443
 Alpha  occ. eigenvalues --   -1.09868  -0.98325  -0.95097  -0.92068  -0.86285
 Alpha  occ. eigenvalues --   -0.83222  -0.79390  -0.76884  -0.76258  -0.75369
 Alpha  occ. eigenvalues --   -0.74362  -0.70710  -0.68777  -0.67337  -0.66879
 Alpha  occ. eigenvalues --   -0.65936  -0.61542  -0.59067  -0.55765  -0.55397
 Alpha  occ. eigenvalues --   -0.49958
 Alpha virt. eigenvalues --   -0.23749  -0.18447  -0.09605  -0.09536  -0.07977
 Alpha virt. eigenvalues --   -0.05339  -0.03410  -0.03272  -0.00153   0.01192
 Alpha virt. eigenvalues --    0.02240   0.04458   0.05298   0.07532   0.09135

 Mulliken charges:
               1
     1  N   -0.036257
     2  C    0.024610
     3  C   -0.059072
     4  C   -0.071203
     5  C    0.278070
     6  C   -0.060541
     7  C    0.405494
     8  O   -0.303357
     9  O   -0.310042
    10  O   -0.261423
    11  H    0.252535
    12  H    0.187674
    13  H    0.174716
    14  H    0.177303
    15  H    0.309131
    16  H    0.292363
 Sum of Mulliken charges =   1.00000

 Dipole moment (field-independent basis, Debye):
    X=             -2.5069    Y=             -1.1548    Z=              0.0000  Tot=              2.7601
 Quadrupole moment (field-independent basis, Debye-Ang):
   XX=            -25.0409   YY=            -43.9905   ZZ=            -55.8493
   XY=              9.3763   XZ=             -0.0003   YZ=              0.0003

  Exact polarizability: 106.069   1.940  90.037  -0.002   0.002  39.745
 Approx polarizability: 129.051   1.829 127.993  -0.002   0.004  55.327

                      1                      2                      3
                      A                      A                      A
 Frequencies --     98.2037               140.5293               228.3464
 Red. masses --     10.1947                 4.4746                 6.4142
 Frc consts  --      0.0579                 0.0521                 0.1971
 IR Inten    --      5.1881                 0.0073                 7.1608

                      4                      5                      6
                      A                      A                      A
 Frequencies --    250.5350               368.4947               409.8273
 Red. masses --      4.7300                 7.7808                 6.8489
 Frc consts  --      0.1749                 0.6225                 0.6778
 IR Inten    --      2.1882                 6.6224                13.6801

                      7                      8                      9
                      A                      A                      A
 Frequencies --    421.1899               553.0846               556.1748
 Red. masses --      3.2010                 2.3152                 5.9871
 Frc consts  --      0.3346                 0.4173                 1.0912
 IR Inten    --     11.8997                 2.1648                 1.8006

                     10                     11                     12
                      A                      A                      A
 Frequencies --    577.1333               585.1825               594.6260
 Red. masses --      6.8308                 1.1859                 1.3508
 Frc consts  --      1.3405                 0.2393                 0.2814
 IR Inten    --     12.5018               181.0498                 3.1218

                     13                     14                     15
                      A                      A                      A
 Frequencies --    642.5927               700.0017               764.8652
 Red. masses --      5.1833                 2.9996                 4.3888
 Frc consts  --      1.2610                 0.8660                 1.5127
 IR Inten    --     36.2676                81.4586                20.0368

                     16                     17                     18
                      A                      A                      A
 Frequencies --    818.0732               822.0283               888.9417
 Red. masses --      2.5395                 2.1879                 5.8617
 Frc consts  --      1.0013                 0.8711                 2.7291
 IR Inten    --      3.4270                87.3004                22.4694

                     19                     20                     21
                      A                      A                      A
 Frequencies --    921.6832              1002.4489              1044.7596
 Red. masses --      1.3480                 1.3185                 1.3461
 Frc consts  --      0.6747                 0.7806                 0.8657
 IR Inten    --      2.8496                13.1532                 0.0144

                     22                     23                     24
                      A                      A                      A
 Frequencies --   1084.8264              1129.5808              1175.6672
 Red. masses --      2.3738                 2.1238                 1.5977
 Frc consts  --      1.6460                 1.5966                 1.3011
 IR Inten    --     13.3505                19.6279                36.8876

                     25                     26                     27
                      A                      A                      A
 Frequencies --   1193.9206              1258.6210              1276.9877
 Red. masses --      1.9573                 1.3010                 1.4979
 Frc consts  --      1.6439                 1.2143                 1.4391
 IR Inten    --    144.4257                29.7959               241.0470

                     28                     29                     30
                      A                      A                      A
 Frequencies --   1332.8096              1379.3270              1410.6933
 Red. masses --      3.7985                 1.4621                 2.5722
 Frc consts  --      3.9756                 1.6390                 3.0160
 IR Inten    --    125.4841                50.8830                88.0512

                     31                     32                     33
                      A                      A                      A
 Frequencies --   1452.3743              1553.8540              1587.5728
 Red. masses --      3.9840                 3.2718                 2.5837
 Frc consts  --      4.9514                 4.6543                 3.8368
 IR Inten    --     30.2935                80.6919               233.2337

                     34                     35                     36
                      A                      A                      A
 Frequencies --   1669.2515              1710.4540              1895.0458
 Red. masses --      6.6282                 5.6023                11.0076
 Frc consts  --     10.8816                 9.6569                23.2908
 IR Inten    --     33.7683                18.8819               343.8297

                     37                     38                     39
                      A                      A                      A
 Frequencies --   3209.4071              3227.7294              3237.5949
 Red. masses --      1.0933                 1.0946                 1.1005
 Frc consts  --      6.6351                 6.7188                 6.7967
 IR Inten    --      8.4826                10.3625                24.5481

                     40                     41                     42
                      A                      A                      A
 Frequencies --   3460.0119              3753.3410              3761.8255
 Red. masses --      1.0798                 1.0665                 1.0642
 Frc consts  --      7.6166                 8.8524                 8.8731
 IR Inten    --    216.0026               524.1091                37.4569

 - Thermochemistry -
 -------------------
 Temperature   298.150 Kelvin.  Pressure   1.00000 Atm.
 Atom     1 has atomic number  7 and mass  14.00307

 Molecular mass:   140.03477 amu.
 Principal axes and moments of inertia in atomic units:
                           1         2         3
     Eigenvalues --   781.493461432.058712213.55217
           X            0.99953   0.03065   0.00002
           Y           -0.03065   0.99953  -0.00005
           Z           -0.00003   0.00005   1.00000
 This molecule is an asymmetric top.
 Rotational symmetry number  1.
 Warning -- assumption of classical behavior for rotation
           may cause significant error
 Rotational temperatures (Kelvin)      0.11083     0.06048     0.03913
 Rotational constants (GHZ):           2.30935     1.26024     0.81531
 Zero-point vibrational energy     323886.6 (Joules/Mol)
                                   77.41076 (Kcal/Mol)
 Warning -- explicit consideration of  12 degrees of freedom as
           vibrations may cause significant error
 Vibrational temperatures:    141.29   202.19   328.54   360.46   530.18
          (Kelvin)            589.65   606.00   795.76   800.21   830.37
                              841.95   855.53   924.55  1007.15  1100.47
                             1177.02  1182.71  1278.99  1326.09  1442.30
                             1503.17  1560.82  1625.21  1691.52  1717.78
                             1810.87  1837.30  1917.61  1984.54  2029.67
                             2089.64  2235.65  2284.16  2401.68  2460.96
                             2726.54  4617.62  4643.98  4658.17  4978.18
                             5400.21  5412.42

 Zero-point correction=                           0.123362 (Hartree/Particle)
 Thermal correction to Energy=                    0.131216
 Thermal correction to Enthalpy=                  0.132161
 Thermal correction to Gibbs Free Energy=         0.090611
 Sum of electronic and zero-point Energies=           -512.324245
 Sum of electronic and thermal Energies=              -512.316390
 Sum of electronic and thermal Enthalpies=            -512.315446
 Sum of electronic and thermal Free Energies=         -512.356996

                     E (Thermal)             CV                S
                      KCal/Mol        Cal/Mol-Kelvin    Cal/Mol-Kelvin
 Total                   82.340             30.608             87.449
 Electronic               0.000              0.000              0.000
 Translational            0.889              2.981             40.722
 Rotational               0.889              2.981             29.295
 Vibrational             80.562             24.646             17.432
 Vibration     1          0.604              1.950              3.490
 Vibration     2          0.615              1.913              2.797
 Vibration     3          0.651              1.798              1.892
 Vibration     4          0.663              1.762              1.727
 Vibration     5          0.741              1.537              1.086
 Vibration     6          0.774              1.449              0.927
 Vibration     7          0.784              1.424              0.888
 Vibration     8          0.908              1.133              0.538
 Vibration     9          0.912              1.126              0.532
 Vibration    10          0.934              1.081              0.491
 Vibration    11          0.942              1.063              0.476
 Vibration    12          0.952              1.043              0.459

 Optimization completed.
    -- Stationary point found.
 Normal termination of Gaussian 09 at Thu Dec 19 17:43:25 2024.
