 Gaussian 09, Revision E.01,
 Gaussian 09:  ES64L-G09RevE.01 30-Nov-2015

 ----------------------------
 # opt freq m062x/aug-cc-pvdz
 ----------------------------

 ----------
 [No Title]
 ----------
 Symbolic Z-matrix:
 Charge =  1 Multiplicity = 1

 SCF Done:  E(RM062X) =  -512.341136935     A.U. after   15 cycles
 SCF Done:  E(RM062X) =  -512.341220499     A.U. after   12 cycles
 SCF Done:  E(RM062X) =  -512.341218100     A.U. after   11 cycles
 SCF Done:  E(RM062X) =  -512.341226314     A.U. after   11 cycles
 SCF Done:  E(RM062X) =  -512.341228516     A.U. after    9 cycles
 Optimization completed.
    -- Stationary point found.
 Normal termination of Gaussian 09 at Sat Dec 14 18:22:01 2024.

 ----------------------------------------------------------------------
 #N Geom=AllCheck Guess=TCheck SCRF=Check GenChk RM062X/Aug-CC-pVDZ Fre
 q
 ----------------------------------------------------------------------

 Structure from the checkpoint file:  "pvdz3HPA2.chk"
 ----------
 [No Title]
 ----------
 Charge =  1 Multiplicity = 1

                         Standard orientation:
 ---------------------------------------------------------------------
 Center     Atomic      Atomic             Coordinates (Angstroms)
 Number     Number       Type             X           Y           Z
 ---------------------------------------------------------------------
      1          7           0       -0.504910   -1.347412   -0.000058
      2          6           0       -1.830669   -1.421665   -0.000017
      3          6           0       -2.563949   -0.230767    0.000065
      4          6           0       -1.898649    0.977869    0.000099
      5          6           0       -0.484615    1.021388    0.000054
      6          6           0        0.203702   -0.193186   -0.000026
      7          6           0        1.681119   -0.421291   -0.000091
      8          8           0        2.145190   -1.527022   -0.000116
      9          8           0        2.372304    0.722845   -0.000004
     10          8           0        0.083588    2.217699    0.000091
     11          1           0        0.069841   -2.196904   -0.000123
     12          1           0       -2.276501   -2.412982   -0.000053
     13          1           0       -3.650549   -0.273457    0.000100
     14          1           0       -2.436684    1.925683    0.000163
     15          1           0        3.325350    0.526901   -0.000010
     16          1           0        1.052621    2.160377    0.000057
 ---------------------------------------------------------------------

 SCF Done:  E(RM062X) =  -512.341228516     A.U. after    1 cycles

 The electronic state is 1-A.
 Alpha  occ. eigenvalues --  -19.88226 -19.86098 -19.82689 -15.05887 -10.88532
 Alpha  occ. eigenvalues --  -10.83766 -10.81554 -10.81400 -10.77135 -10.76847
 Alpha  occ. eigenvalues --   -1.43380  -1.38903  -1.34606  -1.32039  -1.12148
 Alpha  occ. eigenvalues --   -1.09681  -0.98149  -0.94884  -0.91943  -0.86081
 Alpha  occ. eigenvalues --   -0.83009  -0.79220  -0.76646  -0.76148  -0.74971
 Alpha  occ. eigenvalues --   -0.74068  -0.70306  -0.68628  -0.67120  -0.66496
 Alpha  occ. eigenvalues --   -0.65689  -0.61443  -0.58694  -0.55497  -0.55092
 Alpha  occ. eigenvalues --   -0.49719
 Alpha virt. eigenvalues --   -0.23861  -0.18679  -0.13613  -0.11917  -0.10600
 Alpha virt. eigenvalues --   -0.10248  -0.09693  -0.09072  -0.08333  -0.07987
 Alpha virt. eigenvalues --   -0.05891  -0.05725  -0.04861  -0.04738  -0.03732

 Mulliken charges:
               1
     1  N    0.008925
     2  C    0.530903
     3  C    0.819962
     4  C    0.665344
     5  C    0.827758
     6  C    0.712075
     7  C    0.339060
     8  O   -0.515687
     9  O   -0.569992
    10  O   -0.498472
    11  H    0.048759
    12  H   -0.628129
    13  H   -0.582772
    14  H   -0.687845
    15  H    0.301681
    16  H    0.228430
 Sum of Mulliken charges =   1.00000

 Dipole moment (field-independent basis, Debye):
    X=             -2.5939    Y=             -1.1804    Z=             -0.0000  Tot=              2.8498
 Quadrupole moment (field-independent basis, Debye-Ang):
   XX=            -24.8762   YY=            -43.9843   ZZ=            -56.2688
   XY=              9.3061   XZ=             -0.0004   YZ=              0.0004

  Exact polarizability: 110.318   1.954  93.972  -0.002   0.003  45.201
 Approx polarizability: 134.412   1.781 133.280  -0.002   0.003  61.637

                      1                      2                      3
                      A                      A                      A
 Frequencies --     97.0212               139.9549               226.9261
 Red. masses --     10.2961                 4.4419                 6.4041
 Frc consts  --      0.0571                 0.0513                 0.1943
 IR Inten    --      4.8442                 0.0187                 6.3545

                      4                      5                      6
                      A                      A                      A
 Frequencies --    251.7160               367.0637               407.3181
 Red. masses --      4.7014                 7.7670                 6.8345
 Frc consts  --      0.1755                 0.6166                 0.6681
 IR Inten    --      1.7741                 6.8857                13.8636

                      7                      8                      9
                      A                      A                      A
 Frequencies --    420.9907               552.0771               555.6492
 Red. masses --      3.1870                 6.0858                 3.0656
 Frc consts  --      0.3328                 1.0929                 0.5577
 IR Inten    --     10.3144                 2.3738                 0.6402

                     10                     11                     12
                      A                      A                      A
 Frequencies --    574.6082               598.7849               608.3258
 Red. masses --      6.6813                 1.1471                 1.2296
 Frc consts  --      1.2997                 0.2423                 0.2681
 IR Inten    --     11.9774               162.7212                 1.0232

                     13                     14                     15
                      A                      A                      A
 Frequencies --    637.2828               695.8865               762.2465
 Red. masses --      5.2029                 2.7421                 4.4341
 Frc consts  --      1.2450                 0.7824                 1.5179
 IR Inten    --     35.7974                99.4577                17.7083

                     16                     17                     18
                      A                      A                      A
 Frequencies --    808.4824               815.0752               884.0912
 Red. masses --      2.3921                 2.3662                 5.8548
 Frc consts  --      0.9213                 0.9262                 2.6962
 IR Inten    --      5.4437                71.3748                20.2176

                     19                     20                     21
                      A                      A                      A
 Frequencies --    913.7809               987.8278              1026.9964
 Red. masses --      1.3652                 1.3120                 1.3732
 Frc consts  --      0.6717                 0.7543                 0.8534
 IR Inten    --      3.6859                14.5655                 0.0123

                     22                     23                     24
                      A                      A                      A
 Frequencies --   1079.0014              1127.4447              1164.1269
 Red. masses --      2.1862                 2.1285                 1.3804
 Frc consts  --      1.4996                 1.5941                 1.1022
 IR Inten    --     10.9560                13.6709                27.9170

                     25                     26                     27
                      A                      A                      A
 Frequencies --   1193.7054              1252.1981              1281.5418
 Red. masses --      2.2398                 1.3364                 1.4669
 Frc consts  --      1.8804                 1.2346                 1.4195
 IR Inten    --    139.4011                21.5169               235.0952

                     28                     29                     30
                      A                      A                      A
 Frequencies --   1339.4337              1374.6928              1405.7611
 Red. masses --      3.6692                 1.3919                 2.7718
 Frc consts  --      3.8785                 1.5498                 3.2273
 IR Inten    --    118.2835                47.4783               115.3718

                     31                     32                     33
                      A                      A                      A
 Frequencies --   1464.2084              1550.8533              1582.4016
 Red. masses --      4.3596                 3.4864                 2.7727
 Frc consts  --      5.5068                 4.9405                 4.0906
 IR Inten    --     17.8479                74.2248               252.1474

                     34                     35                     36
                      A                      A                      A
 Frequencies --   1676.3419              1719.3410              1886.5703
 Red. masses --      6.8293                 5.7289                10.8731
 Frc consts  --     11.3072                 9.9781                22.8007
 IR Inten    --     30.4232                19.1360               349.6377

                     37                     38                     39
                      A                      A                      A
 Frequencies --   3219.6581              3238.0861              3252.2819
 Red. masses --      1.0939                 1.0963                 1.1008
 Frc consts  --      6.6810                 6.7725                 6.8604
 IR Inten    --      7.9762                11.5539                23.6622

                     40                     41                     42
                      A                      A                      A
 Frequencies --   3469.5572              3752.9810              3760.0687
 Red. masses --      1.0804                 1.0669                 1.0645
 Frc consts  --      7.6626                 8.8537                 8.8673
 IR Inten    --    210.7155               498.2460                34.3981

 - Thermochemistry -
 -------------------
 Temperature   298.150 Kelvin.  Pressure   1.00000 Atm.
 Atom     1 has atomic number  7 and mass  14.00307

 Molecular mass:   140.03477 amu.
 Principal axes and moments of inertia in atomic units:
                           1         2         3
     Eigenvalues --   787.641601442.228602229.87019
           X            0.99953   0.03070   0.00002
           Y           -0.03070   0.99953  -0.00005
           Z           -0.00003   0.00005   1.00000
 This molecule is an asymmetric top.
 Rotational symmetry number  1.
 Warning -- assumption of classical behavior for rotation
           may cause significant error
 Rotational temperatures (Kelvin)      0.10997     0.06006     0.03884
 Rotational constants (GHZ):           2.29132     1.25136     0.80935
 Zero-point vibrational energy     323723.6 (Joules/Mol)
                                   77.37180 (Kcal/Mol)
 Warning -- explicit consideration of  12 degrees of freedom as
           vibrations may cause significant error
 Vibrational temperatures:    139.59   201.36   326.50   362.16   528.12
          (Kelvin)            586.04   605.71   794.31   799.45   826.73
                              861.52   875.24   916.91  1001.22  1096.70
                             1163.22  1172.71  1272.01  1314.73  1421.26
                             1477.62  1552.44  1622.14  1674.92  1717.47
                             1801.63  1843.85  1927.14  1977.87  2022.57
                             2106.67  2231.33  2276.72  2411.88  2473.75
                             2714.35  4632.36  4658.88  4679.30  4991.91
                             5399.70  5409.89

 Zero-point correction=                           0.123300 (Hartree/Particle)
 Thermal correction to Energy=                    0.131168
 Thermal correction to Enthalpy=                  0.132112
 Thermal correction to Gibbs Free Energy=         0.090523
 Sum of electronic and zero-point Energies=           -512.217929
 Sum of electronic and thermal Energies=              -512.210061
 Sum of electronic and thermal Enthalpies=            -512.209117
 Sum of electronic and thermal Free Energies=         -512.250706

                     E (Thermal)             CV                S
                      KCal/Mol        Cal/Mol-Kelvin    Cal/Mol-Kelvin
 Total                   82.309             30.684             87.532
 Electronic               0.000              0.000              0.000
 Translational            0.889              2.981             40.722
 Rotational               0.889              2.981             29.317
 Vibrational             80.531             24.722             17.493
 Vibration     1          0.603              1.951              3.513
 Vibration     2          0.615              1.913              2.804
 Vibration     3          0.651              1.800              1.903
 Vibration     4          0.664              1.760              1.719
 Vibration     5          0.740              1.540              1.092
 Vibration     6          0.772              1.454              0.936
 Vibration     7          0.783              1.425              0.889
 Vibration     8          0.907              1.135              0.540
 Vibration     9          0.911              1.127              0.533
 Vibration    10          0.931              1.086              0.495
 Vibration    11          0.957              1.034              0.452
 Vibration    12          0.967              1.014              0.436

 Optimization completed.
    -- Stationary point found.
 Normal termination of Gaussian 09 at Sat Dec 14 18:24:02 2024.
