 Gaussian 09, Revision E.01,
 Gaussian 09:  ES64L-G09RevE.01 30-Nov-2015

 ----------------------------
 # opt freq m062x/aug-cc-pvdz
 ----------------------------

 ----------
 [No Title]
 ----------
 Symbolic Z-matrix:
 Charge =  0 Multiplicity = 1

 SCF Done:  E(RM062X) =  -511.985981651     A.U. after   15 cycles
 SCF Done:  E(RM062X) =  -511.986047325     A.U. after   12 cycles
 SCF Done:  E(RM062X) =  -511.986063047     A.U. after   11 cycles
 SCF Done:  E(RM062X) =  -511.986064732     A.U. after   10 cycles
 Optimization completed.
    -- Stationary point found.
 Normal termination of Gaussian 09 at Sat Dec 14 17:49:25 2024.

 ----------------------------------------------------------------------
 #N Geom=AllCheck Guess=TCheck SCRF=Check GenChk RM062X/Aug-CC-pVDZ Fre
 q
 ----------------------------------------------------------------------

 Structure from the checkpoint file:  "pvdz3HPA.chk"
 ----------
 [No Title]
 ----------
 Charge =  0 Multiplicity = 1

                         Standard orientation:
 ---------------------------------------------------------------------
 Center     Atomic      Atomic             Coordinates (Angstroms)
 Number     Number       Type             X           Y           Z
 ---------------------------------------------------------------------
      1          7           0       -0.429710   -1.444219   -0.000093
      2          6           0       -1.751010   -1.485080   -0.000004
      3          6           0       -2.545589   -0.325831    0.000093
      4          6           0       -1.935120    0.912793    0.000083
      5          6           0       -0.533638    0.972516   -0.000022
      6          6           0        0.172228   -0.247286   -0.000107
      7          6           0        1.655213   -0.215939   -0.000209
      8          8           0        2.301205    0.822532    0.000191
      9          8           0        2.240786   -1.411402    0.000031
     10          8           0        0.052748    2.176094   -0.000063
     11          1           0       -2.210328   -2.473862    0.000003
     12          1           0       -3.631361   -0.410187    0.000173
     13          1           0       -2.499926    1.843392    0.000148
     14          1           0        3.196533   -1.252592    0.000243
     15          1           0        1.022642    2.037946   -0.000193
 ---------------------------------------------------------------------

 SCF Done:  E(RM062X) =  -511.986064732     A.U. after    1 cycles

 The electronic state is 1-A.
 Alpha  occ. eigenvalues --  -19.70700 -19.68016 -19.66192 -14.78354 -10.71062
 Alpha  occ. eigenvalues --  -10.64422 -10.60833 -10.59487 -10.58278 -10.58003
 Alpha  occ. eigenvalues --   -1.26325  -1.20669  -1.16183  -1.07433  -0.92026
 Alpha  occ. eigenvalues --   -0.88575  -0.78679  -0.73249  -0.72013  -0.63940
 Alpha  occ. eigenvalues --   -0.63004  -0.60574  -0.57484  -0.56431  -0.55400
 Alpha  occ. eigenvalues --   -0.51173  -0.50430  -0.49078  -0.47950  -0.46620
 Alpha  occ. eigenvalues --   -0.45542  -0.41606  -0.38792  -0.35650  -0.33787
 Alpha  occ. eigenvalues --   -0.30496
 Alpha virt. eigenvalues --   -0.04151  -0.00669   0.00016   0.00541   0.01223
 Alpha virt. eigenvalues --    0.02122   0.03401   0.03961   0.04958   0.06312
 Alpha virt. eigenvalues --    0.06605   0.06797   0.06990   0.07981   0.08240

 Mulliken charges:
               1
     1  N   -0.135214
     2  C    0.176398
     3  C    0.943028
     4  C    0.799885
     5  C    0.457840
     6  C    0.538323
     7  C    0.526291
     8  O   -0.652985
     9  O   -0.532065
    10  O   -0.556650
    11  H   -0.616934
    12  H   -0.657482
    13  H   -0.753447
    14  H    0.252486
    15  H    0.210526
 Sum of Mulliken charges =  -0.00000

 Dipole moment (field-independent basis, Debye):
    X=             -1.2014    Y=             -0.4512    Z=             -0.0003  Tot=              1.2834
 Quadrupole moment (field-independent basis, Debye-Ang):
   XX=            -43.5482   YY=            -61.5818   ZZ=            -58.3918
   XY=             -2.3140   XZ=             -0.0011   YZ=             -0.0013

  Exact polarizability: 118.055   3.739  97.448  -0.001   0.001  50.188
 Approx polarizability: 142.365   7.223 134.762  -0.001   0.003  68.132

                      1                      2                      3
                      A                      A                      A
 Frequencies --     89.3124               142.8286               245.1891
 Red. masses --      9.0121                 5.9092                 6.5261
 Frc consts  --      0.0424                 0.0710                 0.2312
 IR Inten    --      1.0659                 2.5298                 3.2107

                      4                      5                      6
                      A                      A                      A
 Frequencies --    260.5085               362.9243               440.4381
 Red. masses --      4.8819                 7.3770                 9.4557
 Frc consts  --      0.1952                 0.5725                 1.0807
 IR Inten    --      1.4837                11.0580                 3.0905

                      7                      8                      9
                      A                      A                      A
 Frequencies --    443.1271               530.8637               560.7478
 Red. masses --      3.8167                 5.6324                 3.7555
 Frc consts  --      0.4416                 0.9352                 0.6958
 IR Inten    --      0.1987                 3.0105                 0.0771

                     10                     11                     12
                      A                      A                      A
 Frequencies --    578.0745               631.1186               658.6127
 Red. masses --      7.4970                 1.2136                 6.3268
 Frc consts  --      1.4761                 0.2848                 1.6169
 IR Inten    --      6.4809                68.6543                64.6775

                     13                     14                     15
                      A                      A                      A
 Frequencies --    739.1545               764.8526               773.6165
 Red. masses --      2.7936                 1.0868                 4.5621
 Frc consts  --      0.8993                 0.3746                 1.6087
 IR Inten    --     53.0647               107.4720                29.0348

                     16                     17                     18
                      A                      A                      A
 Frequencies --    832.8029               843.0028               880.5908
 Red. masses --      1.5128                 8.1090                 6.8804
 Frc consts  --      0.6182                 3.3953                 3.1435
 IR Inten    --     13.4972                18.6891                 9.1507

                     19                     20                     21
                      A                      A                      A
 Frequencies --    945.9892              1008.6170              1078.5375
 Red. masses --      1.4323                 1.3868                 2.1611
 Frc consts  --      0.7552                 0.8312                 1.4811
 IR Inten    --      0.5940                 1.0720                 2.4213

                     22                     23                     24
                      A                      A                      A
 Frequencies --   1119.4842              1146.4115              1214.1853
 Red. masses --      2.2364                 1.6021                 2.1789
 Frc consts  --      1.6513                 1.2406                 1.8926
 IR Inten    --     49.5363                 0.3934               393.1130

                     25                     26                     27
                      A                      A                      A
 Frequencies --   1274.2783              1311.0273              1357.6686
 Red. masses --      1.6484                 2.4764                 2.2742
 Frc consts  --      1.5770                 2.5078                 2.4698
 IR Inten    --     11.0367                45.9503                24.6102

                     28                     29                     30
                      A                      A                      A
 Frequencies --   1374.7831              1471.8508              1505.2428
 Red. masses --      2.2659                 2.8062                 4.0337
 Frc consts  --      2.5232                 3.5817                 5.3848
 IR Inten    --     68.8473               161.4851               227.9447

                     31                     32                     33
                      A                      A                      A
 Frequencies --   1517.9210              1659.7879              1687.6515
 Red. masses --      3.3909                 5.1216                 7.8341
 Frc consts  --      4.6032                 8.3131                13.1464
 IR Inten    --     14.1375                20.7112                 7.4470

                     34                     35                     36
                      A                      A                      A
 Frequencies --   1792.1840              3182.2836              3210.5588
 Red. masses --      8.2430                 1.0907                 1.0915
 Frc consts  --     15.5992                 6.5076                 6.6285
 IR Inten    --    375.1138                 7.8057                 6.1851

                     37                     38                     39
                      A                      A                      A
 Frequencies --   3225.2079              3504.9179              3812.1133
 Red. masses --      1.0993                 1.0675                 1.0646
 Frc consts  --      6.7375                 7.7262                 9.1155
 IR Inten    --      1.6821               343.1014               132.0579

 - Thermochemistry -
 -------------------
 Temperature   298.150 Kelvin.  Pressure   1.00000 Atm.
 Atom     1 has atomic number  7 and mass  14.00307

 Molecular mass:   139.02694 amu.
 Principal axes and moments of inertia in atomic units:
                           1         2         3
     Eigenvalues --   762.571921426.745572189.31748
           X            1.00000   0.00229   0.00000
           Y           -0.00229   1.00000  -0.00001
           Z           -0.00000   0.00001   1.00000
 This molecule is an asymmetric top.
 Rotational symmetry number  1.
 Warning -- assumption of classical behavior for rotation
           may cause significant error
 Rotational temperatures (Kelvin)      0.11358     0.06071     0.03956
 Rotational constants (GHZ):           2.36665     1.26494     0.82434
 Zero-point vibrational energy     288171.2 (Joules/Mol)
                                   68.87458 (Kcal/Mol)
 Warning -- explicit consideration of  10 degrees of freedom as
           vibrations may cause significant error
 Vibrational temperatures:    128.50   205.50   352.77   374.81   522.17
          (Kelvin)            633.69   637.56   763.79   806.79   831.72
                              908.04   947.60  1063.48  1100.45  1113.06
                             1198.22  1212.89  1266.97  1361.07  1451.17
                             1551.77  1610.69  1649.43  1746.94  1833.40
                             1886.27  1953.38  1978.00  2117.66  2165.71
                             2183.95  2388.06  2428.15  2578.55  4578.59
                             4619.27  4640.35  5042.79  5484.77

 Zero-point correction=                           0.109759 (Hartree/Particle)
 Thermal correction to Energy=                    0.117385
 Thermal correction to Enthalpy=                  0.118329
 Thermal correction to Gibbs Free Energy=         0.077118
 Sum of electronic and zero-point Energies=           -511.876306
 Sum of electronic and thermal Energies=              -511.868680
 Sum of electronic and thermal Enthalpies=            -511.867735
 Sum of electronic and thermal Free Energies=         -511.908947

                     E (Thermal)             CV                S
                      KCal/Mol        Cal/Mol-Kelvin    Cal/Mol-Kelvin
 Total                   73.660             29.458             86.736
 Electronic               0.000              0.000              0.000
 Translational            0.889              2.981             40.700
 Rotational               0.889              2.981             29.256
 Vibrational             71.883             23.497             16.780
 Vibration     1          0.602              1.957              3.675
 Vibration     2          0.616              1.910              2.766
 Vibration     3          0.660              1.771              1.765
 Vibration     4          0.669              1.745              1.658
 Vibration     5          0.737              1.549              1.110
 Vibration     6          0.800              1.382              0.825
 Vibration     7          0.803              1.376              0.817
 Vibration     8          0.886              1.182              0.585
 Vibration     9          0.916              1.116              0.522
 Vibration    10          0.935              1.079              0.489

 Normal termination of Gaussian 09 at Sat Dec 14 17:52:37 2024.
