 Gaussian 09, Revision E.01,
 Gaussian 09:  ES64L-G09RevE.01 30-Nov-2015

 -----------------------------
 # opt freq m062x/6-311+g(d,p)
 -----------------------------

 ----------
 [No Title]
 ----------
 Symbolic Z-matrix:
 Charge =  1 Multiplicity = 1

 SCF Done:  E(RM062X) =  -610.863905555     A.U. after   14 cycles
 SCF Done:  E(RM062X) =  -610.864408762     A.U. after   12 cycles
 SCF Done:  E(RM062X) =  -610.864088806     A.U. after   13 cycles
 SCF Done:  E(RM062X) =  -610.864624113     A.U. after    9 cycles
 SCF Done:  E(RM062X) =  -610.864689166     A.U. after   10 cycles
 SCF Done:  E(RM062X) =  -610.864690475     A.U. after   10 cycles
 SCF Done:  E(RM062X) =  -610.864693235     A.U. after    9 cycles
 Optimization completed.
    -- Stationary point found.
 Normal termination of Gaussian 09 at Sun Jun 16 17:26:25 2024.

 ----------------------------------------------------------------------
 #N Geom=AllCheck Guess=TCheck SCRF=Check GenChk RM062X/6-311+G(d,p) Fr
 eq
 ----------------------------------------------------------------------

 Structure from the checkpoint file:  "m062x6311THAPyang.chk"
 ----------
 [No Title]
 ----------
 Charge =  1 Multiplicity = 1

                         Standard orientation:
 ---------------------------------------------------------------------
 Center     Atomic      Atomic             Coordinates (Angstroms)
 Number     Number       Type             X           Y           Z
 ---------------------------------------------------------------------
      1          6           0        1.537275   -1.266151   -0.000130
      2          6           0        2.273792   -0.082266    0.000054
      3          6           0        1.634334    1.167767   -0.000075
      4          6           0        0.263713    1.210901   -0.000249
      5          6           0       -0.552178    0.030058   -0.000224
      6          6           0        0.160146   -1.219058   -0.000337
      7          8           0       -0.564005   -2.339336   -0.000593
      8          6           0       -1.973685    0.089201    0.000298
      9          6           0       -2.895479   -1.077690    0.000472
     10          8           0       -2.618697    1.209101    0.000700
     11          8           0       -0.390546    2.394802   -0.000601
     12          8           0        3.592425   -0.207334    0.000227
     13          1           0        2.068860   -2.209885   -0.000164
     14          1           0        2.213788    2.084363   -0.000261
     15          1           0       -0.000016   -3.122304   -0.000496
     16          1           0       -2.713198   -1.703643   -0.874555
     17          1           0       -2.712652   -1.703869    0.875225
     18          1           0       -3.917281   -0.707053    0.000851
     19          1           0       -2.031220    1.990325    0.000577
     20          1           0        0.202912    3.155230    0.001744
     21          1           0        4.047886    0.642403    0.000367
 ---------------------------------------------------------------------

 SCF Done:  E(RM062X) =  -610.864693235     A.U. after    1 cycles

 The electronic state is 1-A.
 Alpha  occ. eigenvalues --  -19.85557 -19.85286 -19.83163 -19.82826 -10.83970
 Alpha  occ. eigenvalues --  -10.81395 -10.80617 -10.80306 -10.73710 -10.71539
 Alpha  occ. eigenvalues --  -10.70312 -10.68870  -1.41395  -1.38643  -1.37702
 Alpha  occ. eigenvalues --   -1.37282  -1.14048  -1.06615  -1.02441  -1.00881
 Alpha  occ. eigenvalues --   -0.92530  -0.90708  -0.88516  -0.84730  -0.82354
 Alpha  occ. eigenvalues --   -0.80181  -0.76009  -0.73686  -0.72016  -0.69498
 Alpha  occ. eigenvalues --   -0.69428  -0.68786  -0.68305  -0.67038  -0.65247
 Alpha  occ. eigenvalues --   -0.65023  -0.62812  -0.60833  -0.60765  -0.59077
 Alpha  occ. eigenvalues --   -0.58553  -0.54556  -0.46650  -0.45725
 Alpha virt. eigenvalues --   -0.21536  -0.13170  -0.12917  -0.10953  -0.10778
 Alpha virt. eigenvalues --   -0.10042  -0.09340  -0.07542  -0.07244  -0.06524
 Alpha virt. eigenvalues --   -0.05338  -0.04651  -0.04254  -0.03551  -0.03099

 Mulliken charges:
               1
     1  C   -0.065086
     2  C   -0.551557
     3  C   -0.371465
     4  C    0.594271
     5  C    2.068926
     6  C   -1.848149
     7  O   -0.203442
     8  C    0.092781
     9  C   -0.398724
    10  O   -0.148752
    11  O   -0.329344
    12  O   -0.196874
    13  H    0.183645
    14  H    0.163888
    15  H    0.313796
    16  H    0.230535
    17  H    0.230508
    18  H    0.234588
    19  H    0.382615
    20  H    0.327558
    21  H    0.290283
 Sum of Mulliken charges =   1.00000

 Dipole moment (field-independent basis, Debye):
    X=              1.4788    Y=              1.6904    Z=              0.0047  Tot=              2.2460
 Quadrupole moment (field-independent basis, Debye-Ang):
   XX=            -42.8832   YY=            -36.6694   ZZ=            -70.0318
   XY=              8.8486   XZ=             -0.0007   YZ=              0.0157

  Exact polarizability: 158.156   2.036 112.761  -0.003   0.007  55.259
 Approx polarizability: 191.353  -2.099 143.221   0.003   0.008  74.439

                      1                      2                      3
                      A                      A                      A
 Frequencies --     57.0047                73.1834               195.7384
 Red. masses --      4.5660                 5.5741                 6.7396
 Frc consts  --      0.0087                 0.0176                 0.1521
 IR Inten    --      0.8027                 1.3769                 0.8350

                      4                      5                      6
                      A                      A                      A
 Frequencies --    211.3734               255.2907               276.5736
 Red. masses --      4.6108                 1.4472                 5.0027
 Frc consts  --      0.1214                 0.0556                 0.2255
 IR Inten    --      4.2525               109.5375                 1.4647

                      7                      8                      9
                      A                      A                      A
 Frequencies --    287.6387               303.8331               351.3970
 Red. masses --      1.3830                 1.4195                 5.3539
 Frc consts  --      0.0674                 0.0772                 0.3895
 IR Inten    --     22.9124                 9.2704                13.1137

                     10                     11                     12
                      A                      A                      A
 Frequencies --    378.8830               403.0176               421.5634
 Red. masses --      5.5259                 4.9963                 1.1338
 Frc consts  --      0.4674                 0.4781                 0.1187
 IR Inten    --      6.4572                 5.6058                49.7483

                     13                     14                     15
                      A                      A                      A
 Frequencies --    429.9888               450.3085               527.8607
 Red. masses --      5.3575                 1.1196                 7.4180
 Frc consts  --      0.5836                 0.1338                 1.2178
 IR Inten    --      5.3154               168.1381                 6.7581

                     16                     17                     18
                      A                      A                      A
 Frequencies --    550.9066               567.0410               616.7637
 Red. masses --      3.8892                 2.5094                 8.0496
 Frc consts  --      0.6955                 0.4754                 1.8041
 IR Inten    --      9.2636                 1.4510                 0.2685

                     19                     20                     21
                      A                      A                      A
 Frequencies --    626.2136               649.9670               654.0566
 Red. masses --      3.4386                 3.4508                 3.0502
 Frc consts  --      0.7945                 0.8589                 0.7688
 IR Inten    --      9.6718                28.2389                17.8268

                     22                     23                     24
                      A                      A                      A
 Frequencies --    694.6865               724.0016               785.6195
 Red. masses --      6.2653                 4.2055                 1.2942
 Frc consts  --      1.7814                 1.2988                 0.4706
 IR Inten    --      0.2931                 4.6620               127.5807

                     25                     26                     27
                      A                      A                      A
 Frequencies --    814.7751               835.9066               994.0271
 Red. masses --      1.5391                 1.5142                 2.1735
 Frc consts  --      0.6020                 0.6234                 1.2653
 IR Inten    --     69.7407                10.0642                40.1643

                     28                     29                     30
                      A                      A                      A
 Frequencies --   1044.1469              1046.8993              1096.1221
 Red. masses --      3.0793                 1.7124                 2.0787
 Frc consts  --      1.9780                 1.1058                 1.4715
 IR Inten    --      5.9591                 1.2056                71.7418

                     31                     32                     33
                      A                      A                      A
 Frequencies --   1106.0156              1190.0232              1199.3892
 Red. masses --      3.2954                 1.2726                 1.2339
 Frc consts  --      2.3751                 1.0619                 1.0458
 IR Inten    --     90.2615                49.2016                67.2182

                     34                     35                     36
                      A                      A                      A
 Frequencies --   1235.8014              1260.3639              1304.5823
 Red. masses --      1.5110                 2.5112                 1.9655
 Frc consts  --      1.3596                 2.3503                 1.9709
 IR Inten    --    166.4474                41.3649                61.8992

                     37                     38                     39
                      A                      A                      A
 Frequencies --   1318.5732              1390.1668              1401.7645
 Red. masses --      1.9308                 1.1671                 3.2007
 Frc consts  --      1.9779                 1.3289                 3.7055
 IR Inten    --    223.2018                54.1625               338.3299

                     40                     41                     42
                      A                      A                      A
 Frequencies --   1437.8983              1450.5261              1470.7988
 Red. masses --      2.7708                 2.1472                 1.0433
 Frc consts  --      3.3753                 2.6618                 1.3298
 IR Inten    --     50.5653                91.0402                18.7677

                     43                     44                     45
                      A                      A                      A
 Frequencies --   1492.9179              1537.6901              1579.5581
 Red. masses --      2.0878                 2.9735                 4.5844
 Frc consts  --      2.7416                 4.1424                 6.7391
 IR Inten    --    540.7496               321.7327               289.3153

                     46                     47                     48
                      A                      A                      A
 Frequencies --   1591.4898              1638.6119              1712.9287
 Red. masses --      3.9023                 5.9384                 7.2541
 Frc consts  --      5.8234                 9.3944                12.5405
 IR Inten    --    163.7452               225.1815               896.3741

                     49                     50                     51
                      A                      A                      A
 Frequencies --   3072.6729              3140.2420              3190.9578
 Red. masses --      1.0360                 1.0978                 1.1063
 Frc consts  --      5.7628                 6.3785                 6.6370
 IR Inten    --     20.9480                 3.3788                 5.0029

                     52                     53                     54
                      A                      A                      A
 Frequencies --   3201.4444              3206.1640              3571.9118
 Red. masses --      1.0939                 1.0944                 1.0670
 Frc consts  --      6.6058                 6.6282                 8.0210
 IR Inten    --      1.4992                 7.7029               308.6412

                     55                     56                     57
                      A                      A                      A
 Frequencies --   3861.1821              3863.1501              3865.7183
 Red. masses --      1.0670                 1.0666                 1.0670
 Frc consts  --      9.3727                 9.3788                 9.3941
 IR Inten    --    153.5247               230.5301               240.0785

 - Thermochemistry -
 -------------------
 Temperature   298.150 Kelvin.  Pressure   1.00000 Atm.
 Atom     1 has atomic number  6 and mass  12.00000

 Molecular mass:   169.05008 amu.
 Principal axes and moments of inertia in atomic units:
                           1         2         3
     Eigenvalues --  1176.889742358.264603524.13494
           X            0.99943   0.03380   0.00006
           Y           -0.03380   0.99943  -0.00004
           Z           -0.00006   0.00004   1.00000
 This molecule is an asymmetric top.
 Rotational symmetry number  1.
 Warning -- assumption of classical behavior for rotation
           may cause significant error
 Rotational temperatures (Kelvin)      0.07360     0.03673     0.02458
 Rotational constants (GHZ):           1.53348     0.76528     0.51211
 Zero-point vibrational energy     434348.1 (Joules/Mol)
                                  103.81169 (Kcal/Mol)
 Warning -- explicit consideration of  18 degrees of freedom as
           vibrations may cause significant error
 Vibrational temperatures:     82.02   105.29   281.62   304.12   367.31
          (Kelvin)            397.93   413.85   437.15   505.58   545.13
                              579.85   606.53   618.66   647.89   759.47
                              792.63   815.84   887.38   900.98   935.16
                              941.04   999.50  1041.68  1130.33  1172.28
                             1202.68  1430.18  1502.29  1506.25  1577.07
                             1591.31  1712.18  1725.65  1778.04  1813.38
                             1877.00  1897.13  2000.14  2016.82  2068.81
                             2086.98  2116.15  2147.97  2212.39  2272.63
                             2289.80  2357.59  2464.52  4420.89  4518.10
                             4591.07  4606.16  4612.95  5139.18  5555.37
                             5558.20  5561.90

 Zero-point correction=                           0.165434 (Hartree/Particle)
 Thermal correction to Energy=                    0.176463
 Thermal correction to Enthalpy=                  0.177407
 Thermal correction to Gibbs Free Energy=         0.129084
 Sum of electronic and zero-point Energies=           -610.699259
 Sum of electronic and thermal Energies=              -610.688230
 Sum of electronic and thermal Enthalpies=            -610.687286
 Sum of electronic and thermal Free Energies=         -610.735609

                     E (Thermal)             CV                S
                      KCal/Mol        Cal/Mol-Kelvin    Cal/Mol-Kelvin
 Total                  110.732             43.382            101.704
 Electronic               0.000              0.000              0.000
 Translational            0.889              2.981             41.283
 Rotational               0.889              2.981             30.659
 Vibrational            108.955             37.421             29.761
 Vibration     1          0.596              1.975              4.558
 Vibration     2          0.599              1.967              4.066
 Vibration     3          0.636              1.846              2.173
 Vibration     4          0.643              1.824              2.032
 Vibration     5          0.666              1.754              1.694
 Vibration     6          0.678              1.717              1.555
 Vibration     7          0.685              1.697              1.488
 Vibration     8          0.695              1.666              1.396
 Vibration     9          0.728              1.572              1.160
 Vibration    10          0.749              1.515              1.044
 Vibration    11          0.768              1.464              0.952
 Vibration    12          0.784              1.423              0.887
 Vibration    13          0.791              1.405              0.859
 Vibration    14          0.809              1.360              0.795
 Vibration    15          0.883              1.188              0.592
 Vibration    16          0.906              1.138              0.542
 Vibration    17          0.923              1.103              0.510
 Vibration    18          0.976              0.996              0.422

 Normal termination of Gaussian 09 at Sun Jun 16 17:31:49 2024.
