 Gaussian 09, Revision E.01,
 Gaussian 09:  ES64L-G09RevE.01 30-Nov-2015

 -----------------------------
 # opt freq m062x/6-311+g(d,p)
 -----------------------------

 ----------
 [No Title]
 ----------
 Symbolic Z-matrix:
 Charge =  0 Multiplicity = 1

 SCF Done:  E(RM062X) =  -610.514708479     A.U. after   15 cycles
 SCF Done:  E(RM062X) =  -610.515569440     A.U. after   12 cycles
 SCF Done:  E(RM062X) =  -610.515461315     A.U. after   12 cycles
 SCF Done:  E(RM062X) =  -610.515654091     A.U. after    7 cycles
 SCF Done:  E(RM062X) =  -610.515711055     A.U. after   12 cycles
 SCF Done:  E(RM062X) =  -610.515728388     A.U. after   11 cycles
 SCF Done:  E(RM062X) =  -610.515728605     A.U. after   11 cycles
 SCF Done:  E(RM062X) =  -610.515732626     A.U. after   10 cycles
 Optimization completed.
    -- Stationary point found.
 Normal termination of Gaussian 09 at Sun Jun 16 17:09:42 2024.

 ----------------------------------------------------------------------
 #N Geom=AllCheck Guess=TCheck SCRF=Check GenChk RM062X/6-311+G(d,p) Fr
 eq
 ----------------------------------------------------------------------

 Structure from the checkpoint file:  "m062x6311THAP.chk"
 ----------
 [No Title]
 ----------
 Charge =  0 Multiplicity = 1

                         Standard orientation:
 ---------------------------------------------------------------------
 Center     Atomic      Atomic             Coordinates (Angstroms)
 Number     Number       Type             X           Y           Z
 ---------------------------------------------------------------------
      1          6           0        1.515506    1.251115   -0.000026
      2          6           0        2.252737    0.066030   -0.000117
      3          6           0        1.625777   -1.167054   -0.000050
      4          6           0        0.232504   -1.226402    0.000116
      5          6           0       -0.561954   -0.043589    0.000175
      6          6           0        0.134627    1.188318    0.000100
      7          8           0       -0.589792    2.336355    0.000153
      8          6           0       -2.030116   -0.176084    0.000234
      9          6           0       -2.945931    1.019824   -0.000101
     10          8           0       -2.544634   -1.294823   -0.000326
     11          8           0       -0.312833   -2.437745    0.000261
     12          8           0        3.598551    0.194466   -0.000261
     13          1           0        2.038786    2.199732   -0.000059
     14          1           0        2.182301   -2.096577   -0.000096
     15          1           0        0.008467    3.089150   -0.000146
     16          1           0       -2.761824    1.643655   -0.875402
     17          1           0       -3.968913    0.649656   -0.000435
     18          1           0       -2.762398    1.643659    0.875315
     19          1           0       -1.294861   -2.313205    0.000508
     20          1           0        4.009198   -0.675035   -0.000291
 ---------------------------------------------------------------------

 SCF Done:  E(RM062X) =  -610.515732626     A.U. after    1 cycles

 The electronic state is 1-A.
 Alpha  occ. eigenvalues --  -19.67985 -19.67649 -19.64496 -19.62626 -10.64865
 Alpha  occ. eigenvalues --  -10.64010 -10.63488 -10.63292 -10.55997 -10.54950
 Alpha  occ. eigenvalues --  -10.54485 -10.53727  -1.21947  -1.21445  -1.20481
 Alpha  occ. eigenvalues --   -1.17081  -0.97146  -0.88303  -0.85667  -0.83287
 Alpha  occ. eigenvalues --   -0.75079  -0.73248  -0.68806  -0.66569  -0.60840
 Alpha  occ. eigenvalues --   -0.60060  -0.58804  -0.56613  -0.54595  -0.52522
 Alpha  occ. eigenvalues --   -0.51719  -0.51434  -0.49788  -0.49704  -0.49010
 Alpha  occ. eigenvalues --   -0.48535  -0.45699  -0.44297  -0.43816  -0.43527
 Alpha  occ. eigenvalues --   -0.37820  -0.34020  -0.29914  -0.28789
 Alpha virt. eigenvalues --   -0.02336  -0.00232   0.00589   0.02381   0.02517
 Alpha virt. eigenvalues --    0.04012   0.04245   0.04723   0.05227   0.05722
 Alpha virt. eigenvalues --    0.06548   0.07128   0.08130   0.08651   0.09007

 Mulliken charges:
               1
     1  C   -0.144175
     2  C   -0.394903
     3  C   -0.283834
     4  C    0.263567
     5  C    2.152983
     6  C   -1.744532
     7  O   -0.243305
     8  C   -0.011155
     9  C   -0.459369
    10  O   -0.326963
    11  O   -0.324003
    12  O   -0.264366
    13  H    0.144702
    14  H    0.152200
    15  H    0.279424
    16  H    0.193356
    17  H    0.203028
    18  H    0.193359
    19  H    0.348711
    20  H    0.265274
 Sum of Mulliken charges =  -0.00000

 Dipole moment (field-independent basis, Debye):
    X=              2.1650    Y=              2.9807    Z=              0.0004  Tot=              3.6840
 Quadrupole moment (field-independent basis, Debye-Ang):
   XX=            -66.9538   YY=            -65.5815   ZZ=            -72.1357
   XY=             -8.6097   XZ=             -0.0033   YZ=             -0.0033

  Exact polarizability: 146.098   1.961 118.118  -0.003   0.000  59.723
 Approx polarizability: 169.394   9.343 156.223  -0.004   0.003  79.825

                      1                      2                      3
                      A                      A                      A
 Frequencies --     46.0321                97.7731               195.9540
 Red. masses --      3.7066                10.9607                 2.2260
 Frc consts  --      0.0046                 0.0617                 0.0504
 IR Inten    --      1.2956                 0.0533                 5.6434

                      4                      5                      6
                      A                      A                      A
 Frequencies --    220.1851               229.3059               265.9417
 Red. masses --      2.0977                 2.5733                 4.7448
 Frc consts  --      0.0599                 0.0797                 0.1977
 IR Inten    --      0.2298                 0.4588                11.9101

                      7                      8                      9
                      A                      A                      A
 Frequencies --    273.8164               321.8007               338.2268
 Red. masses --      2.7405                 1.3930                 5.5172
 Frc consts  --      0.1211                 0.0850                 0.3719
 IR Inten    --     14.8502                65.5330                 7.1755

                     10                     11                     12
                      A                      A                      A
 Frequencies --    358.4818               372.9852               424.5312
 Red. masses --      6.3454                 4.2287                 1.1108
 Frc consts  --      0.4804                 0.3466                 0.1179
 IR Inten    --     11.2580                 2.3810               126.7476

                     13                     14                     15
                      A                      A                      A
 Frequencies --    431.5437               533.8444               571.0669
 Red. masses --      6.3282                 6.9744                 2.8551
 Frc consts  --      0.6944                 1.1711                 0.5486
 IR Inten    --      4.0954                 9.2059                 0.6266

                     16                     17                     18
                      A                      A                      A
 Frequencies --    580.0365               618.6701               631.4865
 Red. masses --      5.6364                 7.7284                 3.1551
 Frc consts  --      1.1173                 1.7428                 0.7413
 IR Inten    --     23.3628                 4.9429                 1.2234

                     19                     20                     21
                      A                      A                      A
 Frequencies --    646.5001               646.8586               706.3342
 Red. masses --      3.9877                 2.8267                 6.6896
 Frc consts  --      0.9820                 0.6969                 1.9664
 IR Inten    --     15.3548                15.1780                 0.6154

                     22                     23                     24
                      A                      A                      A
 Frequencies --    718.6724               797.2026               818.5813
 Red. masses --      3.9638                 1.7042                 1.5630
 Frc consts  --      1.2062                 0.6381                 0.6171
 IR Inten    --     15.8737                60.5225                46.3691

                     25                     26                     27
                      A                      A                      A
 Frequencies --    860.5479               982.4148              1043.9871
 Red. masses --      1.0646                 2.1679                 3.2066
 Frc consts  --      0.4645                 1.2328                 2.0591
 IR Inten    --     80.1085                37.8598                10.9816

                     28                     29                     30
                      A                      A                      A
 Frequencies --   1044.3481              1098.2413              1110.0045
 Red. masses --      1.8215                 2.4279                 4.2526
 Frc consts  --      1.1705                 1.7253                 3.0871
 IR Inten    --      3.9674                38.5860                70.0741

                     31                     32                     33
                      A                      A                      A
 Frequencies --   1185.9862              1208.8267              1244.0948
 Red. masses --      1.3739                 1.4999                 1.7947
 Frc consts  --      1.1386                 1.2914                 1.6366
 IR Inten    --    117.6087                45.6294               230.4259

                     34                     35                     36
                      A                      A                      A
 Frequencies --   1283.2172              1313.0889              1344.5204
 Red. masses --      1.6295                 3.0117                 2.8226
 Frc consts  --      1.5809                 3.0595                 3.0063
 IR Inten    --    245.3426               150.7086               119.7760

                     37                     38                     39
                      A                      A                      A
 Frequencies --   1402.2612              1412.7490              1453.9894
 Red. masses --      1.6243                 2.5763                 1.2779
 Frc consts  --      1.8818                 3.0296                 1.5917
 IR Inten    --    105.1771                 4.9996                33.2890

                     40                     41                     42
                      A                      A                      A
 Frequencies --   1469.7367              1472.9563              1515.2560
 Red. masses --      2.4929                 1.0459                 4.1421
 Frc consts  --      3.1727                 1.3369                 5.6033
 IR Inten    --     14.8690                12.8615               227.7508

                     43                     44                     45
                      A                      A                      A
 Frequencies --   1573.0641              1671.9063              1706.4280
 Red. masses --      2.9470                 4.9635                 7.2933
 Frc consts  --      4.2966                 8.1745                12.5126
 IR Inten    --     65.4739               154.0690               508.0281

                     46                     47                     48
                      A                      A                      A
 Frequencies --   1722.9690              3070.1294              3143.4654
 Red. masses --      7.1985                 1.0349                 1.0992
 Frc consts  --     12.5906                 5.7471                 6.3994
 IR Inten    --    553.4686                 0.7214                 1.2400

                     49                     50                     51
                      A                      A                      A
 Frequencies --   3178.1141              3198.7719              3208.7775
 Red. masses --      1.1062                 1.0929                 1.0930
 Frc consts  --      6.5829                 6.5886                 6.6302
 IR Inten    --      3.5734                 1.9861                 0.4021

                     52                     53                     54
                      A                      A                      A
 Frequencies --   3241.4315              3895.7160              3896.5309
 Red. masses --      1.0717                 1.0662                 1.0663
 Frc consts  --      6.6346                 9.5337                 9.5385
 IR Inten    --    510.1656               125.7038                82.4075

 - Thermochemistry -
 -------------------
 Temperature   298.150 Kelvin.  Pressure   1.00000 Atm.
 Atom     1 has atomic number  6 and mass  12.00000

 Molecular mass:   168.04226 amu.
 Principal axes and moments of inertia in atomic units:
                           1         2         3
     Eigenvalues --  1158.922302343.642603491.53385
           X            0.99941  -0.03435   0.00002
           Y            0.03435   0.99941   0.00001
           Z           -0.00002  -0.00001   1.00000
 This molecule is an asymmetric top.
 Rotational symmetry number  1.
 Warning -- assumption of classical behavior for rotation
           may cause significant error
 Rotational temperatures (Kelvin)      0.07474     0.03696     0.02481
 Rotational constants (GHZ):           1.55726     0.77006     0.51689
 Zero-point vibrational energy     399548.9 (Joules/Mol)
                                   95.49448 (Kcal/Mol)
 Warning -- explicit consideration of  17 degrees of freedom as
           vibrations may cause significant error
 Vibrational temperatures:     66.23   140.67   281.93   316.80   329.92
          (Kelvin)            382.63   393.96   463.00   486.63   515.77
                              536.64   610.81   620.89   768.08   821.64
                              834.54   890.13   908.57   930.17   930.68
                             1016.26  1034.01  1147.00  1177.75  1238.13
                             1413.47  1502.06  1502.58  1580.12  1597.05
                             1706.37  1739.23  1789.97  1846.26  1889.24
                             1934.46  2017.54  2032.63  2091.96  2114.62
                             2119.25  2180.11  2263.29  2405.50  2455.17
                             2478.97  4417.23  4522.74  4572.59  4602.31
                             4616.71  4663.69  5605.06  5606.23

 Zero-point correction=                           0.152180 (Hartree/Particle)
 Thermal correction to Energy=                    0.162970
 Thermal correction to Enthalpy=                  0.163914
 Thermal correction to Gibbs Free Energy=         0.115926
 Sum of electronic and zero-point Energies=           -610.363552
 Sum of electronic and thermal Energies=              -610.352763
 Sum of electronic and thermal Enthalpies=            -610.351819
 Sum of electronic and thermal Free Energies=         -610.399806

                     E (Thermal)             CV                S
                      KCal/Mol        Cal/Mol-Kelvin    Cal/Mol-Kelvin
 Total                  102.265             41.878            100.999
 Electronic               0.000              0.000              0.000
 Translational            0.889              2.981             41.265
 Rotational               0.889              2.981             30.629
 Vibrational            100.488             35.917             29.105
 Vibration     1          0.595              1.979              4.981
 Vibration     2          0.603              1.951              3.498
 Vibration     3          0.636              1.846              2.171
 Vibration     4          0.647              1.810              1.958
 Vibration     5          0.652              1.796              1.884
 Vibration     6          0.672              1.736              1.622
 Vibration     7          0.676              1.722              1.572
 Vibration     8          0.707              1.632              1.301
 Vibration     9          0.719              1.599              1.221
 Vibration    10          0.733              1.558              1.129
 Vibration    11          0.744              1.528              1.067
 Vibration    12          0.787              1.417              0.877
 Vibration    13          0.793              1.402              0.854
 Vibration    14          0.889              1.175              0.579
 Vibration    15          0.927              1.094              0.502
 Vibration    16          0.937              1.074              0.485
 Vibration    17          0.979              0.992              0.419

 Optimization completed.
    -- Stationary point found.
 Normal termination of Gaussian 09 at Sun Jun 16 17:15:06 2024.
