 Gaussian 09, Revision E.01,
 Gaussian 09:  ES64L-G09RevE.01 30-Nov-2015

 ---------------------------
 # opt freq apfd/6-31+g(d,p)
 ---------------------------

 ----------
 [No Title]
 ----------
 Symbolic Z-matrix:
 Charge =  1 Multiplicity = 1

 SCF Done:  E(RAPFD) =  -610.490221901     A.U. after   15 cycles
 SCF Done:  E(RAPFD) =  -610.490386448     A.U. after   12 cycles
 SCF Done:  E(RAPFD) =  -610.490264608     A.U. after   12 cycles
 SCF Done:  E(RAPFD) =  -610.490475010     A.U. after    8 cycles
 SCF Done:  E(RAPFD) =  -610.490508191     A.U. after   11 cycles
 SCF Done:  E(RAPFD) =  -610.490509657     A.U. after   10 cycles
 SCF Done:  E(RAPFD) =  -610.490510508     A.U. after    9 cycles
 Optimization completed.
    -- Stationary point found.
 Normal termination of Gaussian 09 at Sun Jun 16 16:37:40 2024.

 ----------------------------------------------------------------------
 #N Geom=AllCheck Guess=TCheck SCRF=Check GenChk RAPFD/6-31+G(d,p) Freq
 ----------------------------------------------------------------------

 Structure from the checkpoint file:  "APFDTHAPyang.chk"
 ----------
 [No Title]
 ----------
 Charge =  1 Multiplicity = 1

                         Standard orientation:
 ---------------------------------------------------------------------
 Center     Atomic      Atomic             Coordinates (Angstroms)
 Number     Number       Type             X           Y           Z
 ---------------------------------------------------------------------
      1          6           0        1.547928   -1.260933   -0.000187
      2          6           0        2.280807   -0.071391    0.000020
      3          6           0        1.630198    1.177771    0.000012
      4          6           0        0.255623    1.209646   -0.000092
      5          6           0       -0.556596    0.023113   -0.000156
      6          6           0        0.166718   -1.222995   -0.000323
      7          8           0       -0.551078   -2.348716   -0.000601
      8          6           0       -1.977749    0.081525    0.000219
      9          6           0       -2.902243   -1.079500    0.000428
     10          8           0       -2.620850    1.210704    0.000522
     11          8           0       -0.409013    2.389542   -0.000280
     12          8           0        3.603340   -0.197708    0.000134
     13          1           0        2.086573   -2.203786   -0.000279
     14          1           0        2.204434    2.100858   -0.000084
     15          1           0        0.020778   -3.127818   -0.000636
     16          1           0       -2.727862   -1.712398   -0.874588
     17          1           0       -2.727094   -1.712775    0.875015
     18          1           0       -3.928465   -0.712368    0.000944
     19          1           0       -2.012664    1.982895    0.000411
     20          1           0        0.177062    3.157629    0.001190
     21          1           0        4.059929    0.653776    0.000298
 ---------------------------------------------------------------------

 SCF Done:  E(RAPFD) =  -610.490510508     A.U. after    1 cycles

 The electronic state is 1-A.
 Alpha  occ. eigenvalues --  -19.43218 -19.42208 -19.40611 -19.40327 -10.50372
 Alpha  occ. eigenvalues --  -10.48270 -10.47443 -10.47190 -10.41075 -10.39001
 Alpha  occ. eigenvalues --  -10.37715 -10.36017  -1.30668  -1.28172  -1.27368
 Alpha  occ. eigenvalues --   -1.26892  -1.05197  -0.98116  -0.94215  -0.92739
 Alpha  occ. eigenvalues --   -0.85072  -0.83282  -0.80809  -0.77848  -0.75367
 Alpha  occ. eigenvalues --   -0.73124  -0.69336  -0.67208  -0.64620  -0.63072
 Alpha  occ. eigenvalues --   -0.62381  -0.62063  -0.61104  -0.59697  -0.58470
 Alpha  occ. eigenvalues --   -0.57959  -0.56689  -0.54787  -0.54558  -0.52952
 Alpha  occ. eigenvalues --   -0.52422  -0.48440  -0.42082  -0.40942
 Alpha virt. eigenvalues --   -0.24341  -0.16213  -0.13748  -0.13391  -0.11801
 Alpha virt. eigenvalues --   -0.11419  -0.09899  -0.07463  -0.06882  -0.06549
 Alpha virt. eigenvalues --   -0.06414  -0.04682  -0.03669  -0.03555  -0.02895

 Mulliken charges:
               1
     1  C    1.257291
     2  C   -1.049881
     3  C    1.013996
     4  C   -1.246259
     5  C    2.463496
     6  C   -2.594746
     7  O   -0.486940
     8  C    0.490873
     9  C   -0.217037
    10  O   -0.362005
    11  O   -0.592407
    12  O   -0.442452
    13  H    0.189735
    14  H    0.167402
    15  H    0.419172
    16  H    0.234750
    17  H    0.234729
    18  H    0.226876
    19  H    0.466054
    20  H    0.436196
    21  H    0.391156
 Sum of Mulliken charges =   1.00000

 Dipole moment (field-independent basis, Debye):
    X=              1.6487    Y=              1.6859    Z=              0.0028  Tot=              2.3581
 Quadrupole moment (field-independent basis, Debye-Ang):
   XX=            -42.2559   YY=            -35.8148   ZZ=            -69.4669
   XY=              8.8458   XZ=             -0.0002   YZ=              0.0115

  Exact polarizability: 161.431   2.199 114.732  -0.002   0.008  54.890
 Approx polarizability: 257.838  -3.589 178.064   0.001   0.013  80.862

                      1                      2                      3
                      A                      A                      A
 Frequencies --     56.1751                90.0914               194.1781
 Red. masses --      4.6831                 5.1657                 4.0534
 Frc consts  --      0.0087                 0.0247                 0.0900
 IR Inten    --      0.6003                 0.2338                 2.9368

                      4                      5                      6
                      A                      A                      A
 Frequencies --    209.0982               240.8711               271.2944
 Red. masses --      4.6607                 1.2054                 4.8019
 Frc consts  --      0.1201                 0.0412                 0.2082
 IR Inten    --      3.6413                 1.7287                 1.3353

                      7                      8                      9
                      A                      A                      A
 Frequencies --    278.5857               339.2760               347.0955
 Red. masses --      2.6356                 1.2461                 5.7187
 Frc consts  --      0.1205                 0.0845                 0.4059
 IR Inten    --     44.4664                91.8986                10.8778

                     10                     11                     12
                      A                      A                      A
 Frequencies --    370.1984               399.1993               423.4211
 Red. masses --      4.8557                 5.2646                 5.4775
 Frc consts  --      0.3921                 0.4943                 0.5786
 IR Inten    --      5.4289                 7.2983                 3.1975

                     13                     14                     15
                      A                      A                      A
 Frequencies --    456.9261               471.7127               523.8512
 Red. masses --      1.1308                 1.1176                 7.3250
 Frc consts  --      0.1391                 0.1465                 1.1843
 IR Inten    --     10.7628               201.0483                 5.0047

                     16                     17                     18
                      A                      A                      A
 Frequencies --    539.1109               570.5350               603.6442
 Red. masses --      3.9427                 2.6998                 8.0364
 Frc consts  --      0.6751                 0.5178                 1.7253
 IR Inten    --      7.8579                 0.2118                 1.0063

                     19                     20                     21
                      A                      A                      A
 Frequencies --    625.8183               640.2281               653.4524
 Red. masses --      3.3104                 3.6310                 2.9030
 Frc consts  --      0.7639                 0.8769                 0.7303
 IR Inten    --     12.0681                28.2132                24.7099

                     22                     23                     24
                      A                      A                      A
 Frequencies --    718.1362               725.6581               803.8989
 Red. masses --      4.1533                 5.6639                 1.6621
 Frc consts  --      1.2620                 1.7572                 0.6329
 IR Inten    --      5.7575                 1.4028                60.2619

                     25                     26                     27
                      A                      A                      A
 Frequencies --    835.5859               839.9279               990.1392
 Red. masses --      1.3198                 1.4383                 2.1070
 Frc consts  --      0.5429                 0.5978                 1.2170
 IR Inten    --    136.2260                 2.6142                31.4217

                     28                     29                     30
                      A                      A                      A
 Frequencies --   1035.2269              1046.8735              1085.4384
 Red. masses --      3.5812                 1.6851                 3.0498
 Frc consts  --      2.2613                 1.0881                 2.1170
 IR Inten    --      0.1392                 0.5433                92.1987

                     31                     32                     33
                      A                      A                      A
 Frequencies --   1092.8494              1182.7943              1199.3120
 Red. masses --      2.5948                 1.2810                 1.2049
 Frc consts  --      1.8259                 1.0559                 1.0211
 IR Inten    --     43.4181                97.3901                64.9212

                     34                     35                     36
                      A                      A                      A
 Frequencies --   1226.3100              1259.5921              1303.1081
 Red. masses --      1.4746                 2.2824                 1.9454
 Frc consts  --      1.3065                 2.1335                 1.9464
 IR Inten    --    132.1458                52.4755                37.1060

                     37                     38                     39
                      A                      A                      A
 Frequencies --   1329.3232              1391.5032              1408.4913
 Red. masses --      1.8813                 1.1638                 2.6850
 Frc consts  --      1.9587                 1.3277                 3.1383
 IR Inten    --    197.5124                74.5340               227.2794

                     40                     41                     42
                      A                      A                      A
 Frequencies --   1442.4523              1458.0771              1459.8798
 Red. masses --      1.6726                 4.5060                 1.0426
 Frc consts  --      2.0504                 5.6442                 1.3092
 IR Inten    --     24.5471                33.9636                19.9457

                     43                     44                     45
                      A                      A                      A
 Frequencies --   1500.7022              1536.5232              1571.5029
 Red. masses --      2.4334                 2.9050                 4.8642
 Frc consts  --      3.2289                 4.0408                 7.0776
 IR Inten    --    400.0936               270.8227               217.9614

                     46                     47                     48
                      A                      A                      A
 Frequencies --   1595.4787              1627.7828              1706.3054
 Red. masses --      3.5397                 5.7623                 7.0608
 Frc consts  --      5.3088                 8.9958                12.1120
 IR Inten    --    213.3642               246.5825               868.9061

                     49                     50                     51
                      A                      A                      A
 Frequencies --   3083.6418              3157.7224              3204.5365
 Red. masses --      1.0370                 1.0984                 1.1062
 Frc consts  --      5.8097                 6.4527                 6.6928
 IR Inten    --     15.9560                 2.1858                 5.3544

                     52                     53                     54
                      A                      A                      A
 Frequencies --   3207.8155              3228.7876              3498.0434
 Red. masses --      1.0934                 1.0936                 1.0672
 Frc consts  --      6.6289                 6.7171                 7.6936
 IR Inten    --      0.1835                 3.7688               285.6012

                     55                     56                     57
                      A                      A                      A
 Frequencies --   3839.3928              3845.8084              3848.2654
 Red. masses --      1.0666                 1.0670                 1.0670
 Frc consts  --      9.2632                 9.2976                 9.3099
 IR Inten    --    187.7460                66.3648               297.0410

 - Thermochemistry -
 -------------------
 Temperature   298.150 Kelvin.  Pressure   1.00000 Atm.
 Atom     1 has atomic number  6 and mass  12.00000

 Molecular mass:   169.05008 amu.
 Principal axes and moments of inertia in atomic units:
                           1         2         3
     Eigenvalues --  1179.220342369.160733537.36399
           X            0.99943   0.03378   0.00005
           Y           -0.03378   0.99943  -0.00008
           Z           -0.00005   0.00008   1.00000
 This molecule is an asymmetric top.
 Rotational symmetry number  1.
 Warning -- assumption of classical behavior for rotation
           may cause significant error
 Rotational temperatures (Kelvin)      0.07345     0.03656     0.02449
 Rotational constants (GHZ):           1.53045     0.76176     0.51019
 Zero-point vibrational energy     434194.5 (Joules/Mol)
                                  103.77497 (Kcal/Mol)
 Warning -- explicit consideration of  18 degrees of freedom as
           vibrations may cause significant error
 Vibrational temperatures:     80.82   129.62   279.38   300.85   346.56
          (Kelvin)            390.33   400.82   488.14   499.39   532.63
                              574.36   609.21   657.41   678.69   753.70
                              775.66   820.87   868.51   900.41   921.14
                              940.17  1033.24  1044.06  1156.63  1202.22
                             1208.47  1424.59  1489.46  1506.22  1561.70
                             1572.36  1701.78  1725.54  1764.38  1812.27
                             1874.88  1912.60  2002.06  2026.50  2075.36
                             2097.85  2100.44  2159.17  2210.71  2261.04
                             2295.54  2342.01  2454.99  4436.67  4543.25
                             4610.61  4615.33  4645.50  5032.90  5524.02
                             5533.25  5536.79

 Zero-point correction=                           0.165376 (Hartree/Particle)
 Thermal correction to Energy=                    0.176354
 Thermal correction to Enthalpy=                  0.177298
 Thermal correction to Gibbs Free Energy=         0.129162
 Sum of electronic and zero-point Energies=           -610.325135
 Sum of electronic and thermal Energies=              -610.314157
 Sum of electronic and thermal Enthalpies=            -610.313213
 Sum of electronic and thermal Free Energies=         -610.361349

                     E (Thermal)             CV                S
                      KCal/Mol        Cal/Mol-Kelvin    Cal/Mol-Kelvin
 Total                  110.664             43.281            101.311
 Electronic               0.000              0.000              0.000
 Translational            0.889              2.981             41.283
 Rotational               0.889              2.981             30.670
 Vibrational            108.886             37.320             29.359
 Vibration     1          0.596              1.975              4.587
 Vibration     2          0.602              1.956              3.658
 Vibration     3          0.635              1.848              2.188
 Vibration     4          0.642              1.827              2.052
 Vibration     5          0.658              1.778              1.796
 Vibration     6          0.675              1.726              1.588
 Vibration     7          0.679              1.713              1.542
 Vibration     8          0.719              1.597              1.216
 Vibration     9          0.725              1.581              1.179
 Vibration    10          0.742              1.533              1.079
 Vibration    11          0.765              1.472              0.966
 Vibration    12          0.786              1.419              0.880
 Vibration    13          0.815              1.346              0.775
 Vibration    14          0.829              1.313              0.733
 Vibration    15          0.879              1.197              0.601
 Vibration    16          0.894              1.164              0.567
 Vibration    17          0.927              1.095              0.503
 Vibration    18          0.962              1.024              0.443

 Optimization completed.
    -- Stationary point found.
 Normal termination of Gaussian 09 at Sun Jun 16 16:39:48 2024.
