 Gaussian 09, Revision E.01,
 Gaussian 09:  ES64L-G09RevE.01 30-Nov-2015

 ---------------------------
 # opt freq apfd/6-31+g(d,p)
 ---------------------------

 ----------
 [No Title]
 ----------
 Symbolic Z-matrix:
 Charge =  0 Multiplicity = 1

 SCF Done:  E(RAPFD) =  -610.135423277     A.U. after   15 cycles
 SCF Done:  E(RAPFD) =  -610.135537815     A.U. after   12 cycles
 SCF Done:  E(RAPFD) =  -610.135422761     A.U. after   12 cycles
 SCF Done:  E(RAPFD) =  -610.135641246     A.U. after    8 cycles
 SCF Done:  E(RAPFD) =  -610.135680205     A.U. after   11 cycles
 SCF Done:  E(RAPFD) =  -610.135685344     A.U. after   10 cycles
 SCF Done:  E(RAPFD) =  -610.135686556     A.U. after    9 cycles
 SCF Done:  E(RAPFD) =  -610.135686553     A.U. after    8 cycles
 SCF Done:  E(RAPFD) =  -610.135686584     A.U. after    9 cycles
 Optimization completed.
    -- Stationary point found.
 Normal termination of Gaussian 09 at Sun Jun 16 16:20:24 2024.

 ----------------------------------------------------------------------
 #N Geom=AllCheck Guess=TCheck SCRF=Check GenChk RAPFD/6-31+G(d,p) Freq
 ----------------------------------------------------------------------

 Structure from the checkpoint file:  "APFDTHAP.chk"
 ----------
 [No Title]
 ----------
 Charge =  0 Multiplicity = 1

                         Standard orientation:
 ---------------------------------------------------------------------
 Center     Atomic      Atomic             Coordinates (Angstroms)
 Number     Number       Type             X           Y           Z
 ---------------------------------------------------------------------
      1          6           0        1.527575    1.245507   -0.000051
      2          6           0        2.257701    0.051430    0.000052
      3          6           0        1.618737   -1.182123    0.000068
      4          6           0        0.222524   -1.229895   -0.000036
      5          6           0       -0.567404   -0.032687   -0.000151
      6          6           0        0.142690    1.196803   -0.000138
      7          8           0       -0.572797    2.349910   -0.000210
      8          6           0       -2.022348   -0.163934   -0.000237
      9          6           0       -2.948001    1.020749    0.000066
     10          8           0       -2.541773   -1.297586    0.000375
     11          8           0       -0.342424   -2.430982   -0.000027
     12          8           0        3.605588    0.178358    0.000146
     13          1           0        2.061865    2.191498   -0.000047
     14          1           0        2.168904   -2.118652    0.000152
     15          1           0        0.033295    3.099008   -0.000255
     16          1           0       -2.775086    1.652565   -0.875560
     17          1           0       -3.972975    0.647433    0.000380
     18          1           0       -2.774559    1.652583    0.875578
     19          1           0       -1.335433   -2.263442   -0.000155
     20          1           0        4.016393   -0.693699    0.000188
 ---------------------------------------------------------------------

 SCF Done:  E(RAPFD) =  -610.135686584     A.U. after    1 cycles

 The electronic state is 1-A.
 Alpha  occ. eigenvalues --  -19.25573 -19.25313 -19.21632 -19.19636 -10.31661
 Alpha  occ. eigenvalues --  -10.31065 -10.30650 -10.30186 -10.23367 -10.22417
 Alpha  occ. eigenvalues --  -10.21901 -10.21074  -1.11784  -1.11272  -1.09827
 Alpha  occ. eigenvalues --   -1.06051  -0.88267  -0.80136  -0.77432  -0.75242
 Alpha  occ. eigenvalues --   -0.67784  -0.65782  -0.61641  -0.59492  -0.54006
 Alpha  occ. eigenvalues --   -0.53480  -0.52041  -0.49572  -0.47455  -0.45981
 Alpha  occ. eigenvalues --   -0.44866  -0.44552  -0.43109  -0.42653  -0.42581
 Alpha  occ. eigenvalues --   -0.41509  -0.39640  -0.37990  -0.37834  -0.37200
 Alpha  occ. eigenvalues --   -0.31568  -0.27626  -0.25349  -0.24070
 Alpha virt. eigenvalues --   -0.05698  -0.00533  -0.00313   0.00155   0.02675
 Alpha virt. eigenvalues --    0.02976   0.04310   0.04727   0.05320   0.05639
 Alpha virt. eigenvalues --    0.07036   0.07444   0.08362   0.08704   0.09858

 Mulliken charges:
               1
     1  C    1.139953
     2  C   -0.911894
     3  C    1.153131
     4  C   -1.414551
     5  C    2.458085
     6  C   -2.537221
     7  O   -0.513536
     8  C    0.513290
     9  C   -0.472383
    10  O   -0.477624
    11  O   -0.527018
    12  O   -0.499897
    13  H    0.146682
    14  H    0.152877
    15  H    0.389000
    16  H    0.197515
    17  H    0.193548
    18  H    0.197544
    19  H    0.442707
    20  H    0.369792
 Sum of Mulliken charges =  -0.00000

 Dipole moment (field-independent basis, Debye):
    X=              2.3682    Y=              3.1262    Z=             -0.0009  Tot=              3.9219
 Quadrupole moment (field-independent basis, Debye-Ang):
   XX=            -66.1708   YY=            -65.1719   ZZ=            -71.6197
   XY=             -8.8355   XZ=              0.0027   YZ=              0.0009

  Exact polarizability: 152.920   2.027 121.135   0.001  -0.004  60.021
 Approx polarizability: 224.283  14.708 196.233   0.001  -0.010  87.855

                      1                      2                      3
                      A                      A                      A
 Frequencies --     58.4012               109.5335               199.9927
 Red. masses --      3.8505                 9.5860                 3.1223
 Frc consts  --      0.0077                 0.0678                 0.0736
 IR Inten    --      1.1618                 0.2686                 4.3433

                      4                      5                      6
                      A                      A                      A
 Frequencies --    223.7694               231.6897               270.9062
 Red. masses --      4.0075                 1.3341                 4.6023
 Frc consts  --      0.1182                 0.0422                 0.1990
 IR Inten    --      0.5298                 0.4330                11.8150

                      7                      8                      9
                      A                      A                      A
 Frequencies --    282.3595               329.8784               361.7383
 Red. masses --      4.3502                 6.0087                 4.6339
 Frc consts  --      0.2043                 0.3852                 0.3573
 IR Inten    --      2.6459                 8.6118                 1.1838

                     10                     11                     12
                      A                      A                      A
 Frequencies --    380.9709               385.2724               403.6693
 Red. masses --      5.5801                 1.1692                 1.1149
 Frc consts  --      0.4772                 0.1023                 0.1070
 IR Inten    --      8.4086                19.1183               183.2998

                     13                     14                     15
                      A                      A                      A
 Frequencies --    433.5202               527.1077               572.1843
 Red. masses --      6.2042                 7.0138                 6.0576
 Frc consts  --      0.6870                 1.1482                 1.1685
 IR Inten    --      3.6262                 9.9898                16.5379

                     16                     17                     18
                      A                      A                      A
 Frequencies --    581.0934               602.9603               628.6925
 Red. masses --      2.9233                 6.8246                 3.1058
 Frc consts  --      0.5816                 1.4619                 0.7233
 IR Inten    --      0.2005                 7.0064                 1.3483

                     19                     20                     21
                      A                      A                      A
 Frequencies --    643.9870               645.1729               719.5171
 Red. masses --      4.3803                 2.7664                 3.9775
 Frc consts  --      1.0703                 0.6784                 1.2132
 IR Inten    --     21.6134                13.5498                12.9333

                     22                     23                     24
                      A                      A                      A
 Frequencies --    726.6162               795.1647               809.0715
 Red. masses --      5.5310                 1.7335                 1.6632
 Frc consts  --      1.7205                 0.6458                 0.6414
 IR Inten    --      0.0057                53.8972                38.8015

                     25                     26                     27
                      A                      A                      A
 Frequencies --    980.4730               982.4316              1035.3093
 Red. masses --      2.1939                 1.0633                 3.4828
 Frc consts  --      1.2426                 0.6046                 2.1995
 IR Inten    --     38.8980                85.3319                13.5656

                     28                     29                     30
                      A                      A                      A
 Frequencies --   1045.2156              1079.0023              1098.1562
 Red. masses --      1.8096                 3.2832                 3.4226
 Frc consts  --      1.1648                 2.2522                 2.4319
 IR Inten    --      2.3325                79.8483                16.9830

                     31                     32                     33
                      A                      A                      A
 Frequencies --   1189.6521              1212.3534              1237.5119
 Red. masses --      1.2611                 1.3709                 1.9199
 Frc consts  --      1.0516                 1.1872                 1.7323
 IR Inten    --    142.4728                24.5852               210.7171

                     34                     35                     36
                      A                      A                      A
 Frequencies --   1287.3847              1327.2121              1356.3105
 Red. masses --      1.6352                 2.8908                 2.6965
 Frc consts  --      1.5967                 3.0002                 2.9226
 IR Inten    --    203.8109                74.0967               133.5555

                     37                     38                     39
                      A                      A                      A
 Frequencies --   1406.6576              1431.8331              1452.3233
 Red. masses --      1.7202                 3.8876                 1.1747
 Frc consts  --      2.0054                 4.6959                 1.4599
 IR Inten    --    133.6806                 0.5229                30.8798

                     40                     41                     42
                      A                      A                      A
 Frequencies --   1473.3006              1484.8141              1512.3615
 Red. masses --      1.0450                 3.0875                 3.7437
 Frc consts  --      1.3365                 4.0105                 5.0450
 IR Inten    --     13.4047                 4.6027               211.7021

                     43                     44                     45
                      A                      A                      A
 Frequencies --   1577.4627              1657.4675              1683.7372
 Red. masses --      2.6023                 4.4244                 8.5835
 Frc consts  --      3.8152                 7.1613                14.3371
 IR Inten    --    104.1038               211.4140               287.9092

                     46                     47                     48
                      A                      A                      A
 Frequencies --   1707.2157              3020.6830              3078.9987
 Red. masses --      4.4802                 1.0742                 1.0356
 Frc consts  --      7.6935                 5.7748                 5.7847
 IR Inten    --    712.4526               542.0236                 0.4989

                     49                     50                     51
                      A                      A                      A
 Frequencies --   3158.6103              3190.4026              3213.8784
 Red. masses --      1.0992                 1.1059                 1.0921
 Frc consts  --      6.4610                 6.6325                 6.6459
 IR Inten    --      2.5484                11.8154                 2.6147

                     52                     53                     54
                      A                      A                      A
 Frequencies --   3219.3208              3872.3204              3873.1241
 Red. masses --      1.0922                 1.0661                 1.0660
 Frc consts  --      6.6691                 9.4190                 9.4218
 IR Inten    --      3.1440               107.2188                67.0841

 - Thermochemistry -
 -------------------
 Temperature   298.150 Kelvin.  Pressure   1.00000 Atm.
 Atom     1 has atomic number  6 and mass  12.00000

 Molecular mass:   168.04226 amu.
 Principal axes and moments of inertia in atomic units:
                           1         2         3
     Eigenvalues --  1162.567332347.938903499.46990
           X            0.99941  -0.03447  -0.00000
           Y            0.03447   0.99941   0.00005
           Z            0.00000  -0.00005   1.00000
 This molecule is an asymmetric top.
 Rotational symmetry number  1.
 Warning -- assumption of classical behavior for rotation
           may cause significant error
 Rotational temperatures (Kelvin)      0.07450     0.03689     0.02475
 Rotational constants (GHZ):           1.55238     0.76865     0.51572
 Zero-point vibrational energy     399366.1 (Joules/Mol)
                                   95.45078 (Kcal/Mol)
 Warning -- explicit consideration of  17 degrees of freedom as
           vibrations may cause significant error
 Vibrational temperatures:     84.03   157.59   287.74   321.95   333.35
          (Kelvin)            389.77   406.25   474.62   520.46   548.13
                              554.32   580.79   623.74   758.39   823.24
                              836.06   867.52   904.55   926.55   928.26
                             1035.22  1045.44  1144.06  1164.07  1410.68
                             1413.50  1489.58  1503.83  1552.44  1580.00
                             1711.64  1744.30  1780.50  1852.26  1909.56
                             1951.43  2023.86  2060.09  2089.57  2119.75
                             2136.31  2175.95  2269.61  2384.72  2422.52
                             2456.30  4346.08  4429.99  4544.53  4590.27
                             4624.05  4631.88  5571.40  5572.55

 Zero-point correction=                           0.152111 (Hartree/Particle)
 Thermal correction to Energy=                    0.162754
 Thermal correction to Enthalpy=                  0.163699
 Thermal correction to Gibbs Free Energy=         0.116234
 Sum of electronic and zero-point Energies=           -609.983576
 Sum of electronic and thermal Energies=              -609.972932
 Sum of electronic and thermal Enthalpies=            -609.971988
 Sum of electronic and thermal Free Energies=         -610.019453

                     E (Thermal)             CV                S
                      KCal/Mol        Cal/Mol-Kelvin    Cal/Mol-Kelvin
 Total                  102.130             41.625             99.898
 Electronic               0.000              0.000              0.000
 Translational            0.889              2.981             41.265
 Rotational               0.889              2.981             30.636
 Vibrational            100.352             35.663             27.997
 Vibration     1          0.596              1.974              4.511
 Vibration     2          0.606              1.942              3.277
 Vibration     3          0.638              1.840              2.133
 Vibration     4          0.649              1.805              1.928
 Vibration     5          0.653              1.793              1.866
 Vibration     6          0.675              1.727              1.590
 Vibration     7          0.681              1.706              1.519
 Vibration     8          0.713              1.616              1.261
 Vibration     9          0.736              1.551              1.115
 Vibration    10          0.751              1.511              1.035
 Vibration    11          0.754              1.502              1.018
 Vibration    12          0.769              1.462              0.949
 Vibration    13          0.794              1.397              0.847
 Vibration    14          0.882              1.190              0.594
 Vibration    15          0.928              1.091              0.500
 Vibration    16          0.938              1.072              0.483
 Vibration    17          0.961              1.026              0.445

 Optimization completed.
    -- Stationary point found.
 Normal termination of Gaussian 09 at Sun Jun 16 16:22:17 2024.
