 Gaussian 09, Revision E.01,
 Gaussian 09:  ES64L-G09RevE.01 30-Nov-2015

 -----------------------------
 # opt freq B2PLYP/6-31+g(d,p)
 -----------------------------

 ----------
 [No Title]
 ----------
 Symbolic Z-matrix:
 Charge =  0 Multiplicity = 1

 SCF Done:  E(RB2PLYP) =  -609.434480541     A.U. after   15 cycles
 E2(B2PLYP) =    -0.5963270085D+00 E(B2PLYP) =    -0.61003080754944D+03
 SCF Done:  E(RB2PLYP) =  -609.433504265     A.U. after   12 cycles
 E2(B2PLYP) =    -0.5977982972D+00 E(B2PLYP) =    -0.61003130256223D+03
 SCF Done:  E(RB2PLYP) =  -609.432940047     A.U. after   13 cycles
 E2(B2PLYP) =    -0.5982614188D+00 E(B2PLYP) =    -0.61003120146558D+03
 SCF Done:  E(RB2PLYP) =  -609.433322227     A.U. after   11 cycles
 E2(B2PLYP) =    -0.5980674592D+00 E(B2PLYP) =    -0.61003138968661D+03
 SCF Done:  E(RB2PLYP) =  -609.433401933     A.U. after   11 cycles
 E2(B2PLYP) =    -0.5980064700D+00 E(B2PLYP) =    -0.61003140840339D+03
 SCF Done:  E(RB2PLYP) =  -609.433407474     A.U. after   10 cycles
 E2(B2PLYP) =    -0.5980003790D+00 E(B2PLYP) =    -0.61003140785324D+03
 SCF Done:  E(RB2PLYP) =  -609.433410148     A.U. after   10 cycles
 E2(B2PLYP) =    -0.5979988749D+00 E(B2PLYP) =    -0.61003140902252D+03
 SCF Done:  E(RB2PLYP) =  -609.433408298     A.U. after    9 cycles
 E2(B2PLYP) =    -0.5980008533D+00 E(B2PLYP) =    -0.61003140915171D+03
 Optimization completed.
    -- Stationary point found.
 Normal termination of Gaussian 09 at Sun Dec 15 20:35:27 2024.

 ----------------------------------------------------------------------
 #N Geom=AllCheck Guess=TCheck SCRF=Check GenChk RB2PLYP(FC)/6-31+G(d,p
 ) Freq
 ----------------------------------------------------------------------

 Structure from the checkpoint file:  "B2PLYPTHAP.chk"
 ----------
 [No Title]
 ----------
 Charge =  0 Multiplicity = 1

                         Standard orientation:
 ---------------------------------------------------------------------
 Center     Atomic      Atomic             Coordinates (Angstroms)
 Number     Number       Type             X           Y           Z
 ---------------------------------------------------------------------
      1          6           0       -1.528168    1.251295   -0.000008
      2          6           0       -2.262128    0.058141   -0.000057
      3          6           0       -1.627556   -1.177364   -0.000091
      4          6           0       -0.228900   -1.228850   -0.000049
      5          6           0        0.568202   -0.037897    0.000149
      6          6           0       -0.141476    1.195148    0.000071
      7          8           0        0.583865    2.355779    0.000178
      8          6           0        2.031446   -0.166153    0.000500
      9          6           0        2.957994    1.024131   -0.000216
     10          8           0        2.556464   -1.303777    0.000495
     11          8           0        0.329525   -2.445413   -0.000465
     12          8           0       -3.619536    0.184855   -0.000138
     13          1           0       -2.054472    2.198533   -0.000020
     14          1           0       -2.180022   -2.109367   -0.000236
     15          1           0       -0.024221    3.106291    0.000165
     16          1           0        2.786102    1.652227    0.874614
     17          1           0        3.978494    0.645793   -0.000106
     18          1           0        2.785975    1.651368   -0.875638
     19          1           0        1.318728   -2.297250   -0.000941
     20          1           0       -4.029602   -0.689854   -0.000197
 ---------------------------------------------------------------------

 SCF Done:  E(RB2PLYP) =  -609.433408298     A.U. after    1 cycles
 E2(B2PLYP) =    -0.5980008515D+00 E(B2PLYP) =    -0.61003140914991D+03
 E2(B2PLYP) =    -0.5980008515D+00 E(B2PLYP) =    -0.61003140914991D+03

 The electronic state is 1-A.
 Alpha  occ. eigenvalues --  -19.80823 -19.80517 -19.76888 -19.74740 -10.74185
 Alpha  occ. eigenvalues --  -10.73427 -10.72918 -10.72586 -10.64932 -10.63927
 Alpha  occ. eigenvalues --  -10.63399 -10.62620  -1.23849  -1.23310  -1.21926
 Alpha  occ. eigenvalues --   -1.18122  -0.99005  -0.90098  -0.87305  -0.84819
 Alpha  occ. eigenvalues --   -0.75860  -0.73771  -0.68566  -0.67269  -0.60847
 Alpha  occ. eigenvalues --   -0.60279  -0.58932  -0.56390  -0.53594  -0.52606
 Alpha  occ. eigenvalues --   -0.51430  -0.50586  -0.49572  -0.49217  -0.48896
 Alpha  occ. eigenvalues --   -0.47658  -0.46034  -0.44408  -0.44059  -0.42443
 Alpha  occ. eigenvalues --   -0.37032  -0.33698  -0.28877  -0.27617
 Alpha virt. eigenvalues --   -0.00582   0.01602   0.02394   0.04509   0.04514
 Alpha virt. eigenvalues --    0.06060   0.06490   0.07197   0.07458   0.08028
 Alpha virt. eigenvalues --    0.08841   0.09118   0.10777   0.10989   0.11639

 Mulliken charges:
               1
     1  C    0.903253
     2  C   -0.653239
     3  C    0.975241
     4  C   -1.102302
     5  C    2.034421
     6  C   -2.071973
     7  O   -0.560017
     8  C    0.500414
     9  C   -0.360476
    10  O   -0.546696
    11  O   -0.597747
    12  O   -0.550519
    13  H    0.139751
    14  H    0.145676
    15  H    0.390646
    16  H    0.172665
    17  H    0.173733
    18  H    0.172678
    19  H    0.463099
    20  H    0.371394
 Sum of Mulliken charges =   0.00000

 Dipole moment (field-independent basis, Debye):
    X=             -2.3515    Y=              3.2459    Z=             -0.0014  Tot=              4.0082
 Quadrupole moment (field-independent basis, Debye-Ang):
   XX=            -67.8258   YY=            -66.5795   ZZ=            -72.1666
   XY=              9.3200   XZ=             -0.0036   YZ=              0.0033

  Exact polarizability: 153.700  -2.560 122.436   0.005   0.002  61.079
 Approx polarizability: 161.590  -9.399 148.062   0.006   0.003  77.077

                      1                      2                      3
                      A                      A                      A
 Frequencies --     49.7756               100.5271               184.8115
 Red. masses --      3.8056                10.6531                 4.7655
 Frc consts  --      0.0056                 0.0634                 0.0959
 IR Inten    --      1.3705                 0.1264                 4.1549

                      4                      5                      6
                      A                      A                      A
 Frequencies --    212.9262               221.1632               264.3170
 Red. masses --      2.3425                 1.4844                 4.6349
 Frc consts  --      0.0626                 0.0428                 0.1908
 IR Inten    --      0.7469                 0.3029                11.0395

                      7                      8                      9
                      A                      A                      A
 Frequencies --    265.6694               337.6828               348.1846
 Red. masses --      4.8323                 5.8179                 1.1576
 Frc consts  --      0.2009                 0.3909                 0.0827
 IR Inten    --      1.6578                 8.7786                21.4926

                     10                     11                     12
                      A                      A                      A
 Frequencies --    360.7300               370.7994               376.3157
 Red. masses --      5.3495                 1.1117                 4.7947
 Frc consts  --      0.4101                 0.0901                 0.4000
 IR Inten    --      3.7517               184.5291                 5.9700

                     13                     14                     15
                      A                      A                      A
 Frequencies --    432.5492               519.5612               531.0123
 Red. masses --      6.5300                 7.8041                 6.7544
 Frc consts  --      0.7198                 1.2412                 1.1221
 IR Inten    --      3.6053                 2.0810                 8.8813

                     16                     17                     18
                      A                      A                      A
 Frequencies --    567.2558               574.0521               600.8477
 Red. masses --      3.4019                 5.9859                 4.1574
 Frc consts  --      0.6450                 1.1622                 0.8843
 IR Inten    --      1.1310                20.8631                 2.2663

                     19                     20                     21
                      A                      A                      A
 Frequencies --    609.7281               631.9593               643.9673
 Red. masses --      7.5414                 3.9965                 4.0842
 Frc consts  --      1.6519                 0.9404                 0.9979
 IR Inten    --      6.8167                13.2329                15.0697

                     22                     23                     24
                      A                      A                      A
 Frequencies --    714.5876               752.3032               771.3850
 Red. masses --      4.0908                 1.3260                 1.4126
 Frc consts  --      1.2308                 0.4422                 0.4952
 IR Inten    --     12.8225                65.5147                21.5700

                     25                     26                     27
                      A                      A                      A
 Frequencies --    922.7515               984.5375              1036.5689
 Red. masses --      1.0601                 2.3330                 3.5422
 Frc consts  --      0.5318                 1.3324                 2.2424
 IR Inten    --     84.6875                43.8354                16.3522

                     28                     29                     30
                      A                      A                      A
 Frequencies --   1050.5733              1088.4263              1098.8055
 Red. masses --      1.6930                 3.8579                 2.9082
 Frc consts  --      1.1009                 2.6928                 2.0688
 IR Inten    --      0.9911               105.4979                20.1690

                     31                     32                     33
                      A                      A                      A
 Frequencies --   1190.9479              1210.4180              1232.7594
 Red. masses --      1.3326                 1.4774                 1.6873
 Frc consts  --      1.1137                 1.2753                 1.5108
 IR Inten    --    184.4412                20.3037               157.8204

                     34                     35                     36
                      A                      A                      A
 Frequencies --   1277.7553              1319.3704              1354.9944
 Red. masses --      1.6823                 3.2498                 3.3322
 Frc consts  --      1.6183                 3.3330                 3.6046
 IR Inten    --    228.0700               107.4461               154.7197

                     37                     38                     39
                      A                      A                      A
 Frequencies --   1415.9950              1427.6554              1459.1456
 Red. masses --      2.6337                 1.8279                 2.5889
 Frc consts  --      3.1113                 2.1951                 3.2476
 IR Inten    --     27.6290                34.6330                40.9080

                     40                     41                     42
                      A                      A                      A
 Frequencies --   1478.0039              1496.4330              1501.3307
 Red. masses --      1.4451                 1.0476                 2.2761
 Frc consts  --      1.8600                 1.3821                 3.0227
 IR Inten    --     36.7054                11.7069               166.1206

                     43                     44                     45
                      A                      A                      A
 Frequencies --   1566.8571              1646.3948              1659.2434
 Red. masses --      2.6047                 4.1861                 7.5500
 Frc consts  --      3.7675                 6.6854                12.2467
 IR Inten    --     92.6314                 4.7483               381.6749

                     46                     47                     48
                      A                      A                      A
 Frequencies --   1692.8357              3098.0185              3142.6678
 Red. masses --      4.9087                 1.0346                 1.0710
 Frc consts  --      8.2879                 5.8503                 6.2323
 IR Inten    --    661.5660                 3.7272               455.7321

                     49                     50                     51
                      A                      A                      A
 Frequencies --   3176.8684              3203.8821              3229.1702
 Red. masses --      1.0996                 1.1058                 1.0922
 Frc consts  --      6.5385                 6.6880                 6.7101
 IR Inten    --      3.9180                16.2663                 2.6312

                     52                     53                     54
                      A                      A                      A
 Frequencies --   3233.5326              3839.8847              3841.1319
 Red. masses --      1.0923                 1.0662                 1.0663
 Frc consts  --      6.7291                 9.2623                 9.2691
 IR Inten    --      3.5907                81.9017                86.1698

 - Thermochemistry -
 -------------------
 Temperature   298.150 Kelvin.  Pressure   1.00000 Atm.
 Atom     1 has atomic number  6 and mass  12.00000

 Molecular mass:   168.04226 amu.
 Principal axes and moments of inertia in atomic units:
                           1         2         3
     Eigenvalues --  1170.090452365.514783524.58001
           X            0.99941   0.03433  -0.00005
           Y           -0.03433   0.99941  -0.00005
           Z            0.00005   0.00005   1.00000
 This molecule is an asymmetric top.
 Rotational symmetry number  1.
 Warning -- assumption of classical behavior for rotation
           may cause significant error
 Rotational temperatures (Kelvin)      0.07402     0.03662     0.02457
 Rotational constants (GHZ):           1.54239     0.76294     0.51204
 Zero-point vibrational energy     396676.1 (Joules/Mol)
                                   94.80787 (Kcal/Mol)
 Warning -- explicit consideration of  19 degrees of freedom as
           vibrations may cause significant error
 Vibrational temperatures:     71.62   144.64   265.90   306.35   318.20
          (Kelvin)            380.29   382.24   485.85   500.96   519.01
                              533.50   541.43   622.34   747.53   764.01
                              816.15   825.93   864.48   877.26   909.25
                              926.52  1028.13  1082.40  1109.85  1327.63
                             1416.53  1491.39  1511.54  1566.00  1580.93
                             1713.51  1741.52  1773.66  1838.40  1898.28
                             1949.53  2037.30  2054.08  2099.38  2126.52
                             2153.03  2160.08  2254.36  2368.79  2387.28
                             2435.61  4457.35  4521.59  4570.80  4609.67
                             4646.05  4652.33  5524.73  5526.53

 Zero-point correction=                           0.151086 (Hartree/Particle)
 Thermal correction to Energy=                    0.162087
 Thermal correction to Enthalpy=                  0.163032
 Thermal correction to Gibbs Free Energy=         0.114737
 Sum of electronic and zero-point Energies=           -609.880323
 Sum of electronic and thermal Energies=              -609.869322
 Sum of electronic and thermal Enthalpies=            -609.868378
 Sum of electronic and thermal Free Energies=         -609.916672

                     E (Thermal)             CV                S
                      KCal/Mol        Cal/Mol-Kelvin    Cal/Mol-Kelvin
 Total                  101.711             42.607            101.644
 Electronic               0.000              0.000              0.000
 Translational            0.889              2.981             41.265
 Rotational               0.889              2.981             30.657
 Vibrational             99.934             36.645             29.721
 Vibration     1          0.595              1.978              4.826
 Vibration     2          0.604              1.949              3.444
 Vibration     3          0.631              1.861              2.279
 Vibration     4          0.644              1.821              2.018
 Vibration     5          0.648              1.809              1.950
 Vibration     6          0.671              1.738              1.633
 Vibration     7          0.671              1.736              1.624
 Vibration     8          0.718              1.600              1.223
 Vibration     9          0.726              1.579              1.174
 Vibration    10          0.735              1.553              1.119
 Vibration    11          0.743              1.532              1.076
 Vibration    12          0.747              1.521              1.054
 Vibration    13          0.793              1.399              0.850
 Vibration    14          0.875              1.207              0.611
 Vibration    15          0.886              1.181              0.585
 Vibration    16          0.923              1.102              0.510
 Vibration    17          0.930              1.087              0.497
 Vibration    18          0.959              1.030              0.448
 Vibration    19          0.969              1.011              0.433

 Optimization completed.
    -- Stationary point found.
 Normal termination of Gaussian 09 at Sun Dec 15 20:52:32 2024.
