 Gaussian 09, Revision E.01,
 Gaussian 09:  ES64L-G09RevE.01 30-Nov-2015

 -----------------------------
 # opt freq B2PLYP/6-31+g(d,p)
 -----------------------------

 ----------
 [No Title]
 ----------
 Symbolic Z-matrix:
 Charge =  1 Multiplicity = 1

 SCF Done:  E(RB2PLYP) =  -609.790453698     A.U. after   14 cycles
 E2(B2PLYP) =    -0.5910375799D+00 E(B2PLYP) =    -0.61038149127795D+03
 SCF Done:  E(RB2PLYP) =  -609.789455301     A.U. after   12 cycles
 E2(B2PLYP) =    -0.5923295498D+00 E(B2PLYP) =    -0.61038178485086D+03
 SCF Done:  E(RB2PLYP) =  -609.788538030     A.U. after   12 cycles
 E2(B2PLYP) =    -0.5931384382D+00 E(B2PLYP) =    -0.61038167646835D+03
 SCF Done:  E(RB2PLYP) =  -609.789541112     A.U. after   11 cycles
 E2(B2PLYP) =    -0.5924533931D+00 E(B2PLYP) =    -0.61038199450553D+03
 SCF Done:  E(RB2PLYP) =  -609.789519680     A.U. after   10 cycles
 E2(B2PLYP) =    -0.5924781762D+00 E(B2PLYP) =    -0.61038199785657D+03
 SCF Done:  E(RB2PLYP) =  -609.789497404     A.U. after    9 cycles
 E2(B2PLYP) =    -0.5925020427D+00 E(B2PLYP) =    -0.61038199944692D+03
 Optimization completed.
    -- Stationary point found.
 Normal termination of Gaussian 09 at Sun Dec 15 23:08:53 2024.

 ----------------------------------------------------------------------
 #N Geom=AllCheck Guess=TCheck SCRF=Check GenChk RB2PLYP(FC)/6-31+G(d,p
 ) Freq
 ----------------------------------------------------------------------

 Structure from the checkpoint file:  "B2PLYPTHAPyang.chk"
 ----------
 [No Title]
 ----------
 Charge =  1 Multiplicity = 1

                         Standard orientation:
 ---------------------------------------------------------------------
 Center     Atomic      Atomic             Coordinates (Angstroms)
 Number     Number       Type             X           Y           Z
 ---------------------------------------------------------------------
      1          6           0        1.549808   -1.266124   -0.000215
      2          6           0        2.284559   -0.075560   -0.000047
      3          6           0        1.637915    1.175430   -0.000014
      4          6           0        0.260657    1.211467   -0.000044
      5          6           0       -0.556807    0.025355   -0.000100
      6          6           0        0.166424   -1.223735   -0.000271
      7          8           0       -0.560247   -2.356129   -0.000474
      8          6           0       -1.980692    0.081608    0.000256
      9          6           0       -2.910820   -1.082550    0.000320
     10          8           0       -2.630295    1.215988    0.000579
     11          8           0       -0.404863    2.402347   -0.000213
     12          8           0        3.615301   -0.201083   -0.000009
     13          1           0        2.082801   -2.208985   -0.000318
     14          1           0        2.212441    2.095071   -0.000079
     15          1           0        0.014434   -3.136152   -0.000543
     16          1           0       -2.738976   -1.710499   -0.874709
     17          1           0       -2.738393   -1.710909    0.874936
     18          1           0       -3.930703   -0.705771    0.000737
     19          1           0       -2.026297    1.991965    0.000559
     20          1           0        0.189057    3.167178    0.000929
     21          1           0        4.070213    0.653764    0.000106
 ---------------------------------------------------------------------

 SCF Done:  E(RB2PLYP) =  -609.789497404     A.U. after    1 cycles
 E2(B2PLYP) =    -0.5925020388D+00 E(B2PLYP) =    -0.61038199944302D+03
 E2(B2PLYP) =    -0.5925020388D+00 E(B2PLYP) =    -0.61038199944302D+03

 The electronic state is 1-A.
 Alpha  occ. eigenvalues --  -19.98287 -19.97622 -19.95752 -19.95416 -10.93255
 Alpha  occ. eigenvalues --  -10.90689 -10.89863 -10.89591 -10.82544 -10.80412
 Alpha  occ. eigenvalues --  -10.79113 -10.77564  -1.42982  -1.40311  -1.39409
 Alpha  occ. eigenvalues --   -1.38917  -1.15864  -1.08231  -1.04013  -1.02194
 Alpha  occ. eigenvalues --   -0.92960  -0.91490  -0.88555  -0.84467  -0.82597
 Alpha  occ. eigenvalues --   -0.80352  -0.76119  -0.73602  -0.70878  -0.69669
 Alpha  occ. eigenvalues --   -0.69304  -0.68673  -0.67197  -0.66035  -0.64980
 Alpha  occ. eigenvalues --   -0.64164  -0.63000  -0.61085  -0.60516  -0.59192
 Alpha  occ. eigenvalues --   -0.58777  -0.53760  -0.45585  -0.44480
 Alpha virt. eigenvalues --   -0.19563  -0.11144  -0.10922  -0.09117  -0.08895
 Alpha virt. eigenvalues --   -0.07658  -0.07338  -0.05282  -0.05021  -0.04321
 Alpha virt. eigenvalues --   -0.03445  -0.02761  -0.01786  -0.00968  -0.00854

 Mulliken charges:
               1
     1  C    1.013890
     2  C   -0.795290
     3  C    0.816455
     4  C   -0.942019
     5  C    2.023909
     6  C   -2.108480
     7  O   -0.536387
     8  C    0.493504
     9  C   -0.093663
    10  O   -0.433361
    11  O   -0.648052
    12  O   -0.495110
    13  H    0.182601
    14  H    0.159663
    15  H    0.420790
    16  H    0.210887
    17  H    0.210873
    18  H    0.206570
    19  H    0.482260
    20  H    0.438288
    21  H    0.392672
 Sum of Mulliken charges =   1.00000

 Dipole moment (field-independent basis, Debye):
    X=              1.5464    Y=              1.6923    Z=              0.0024  Tot=              2.2924
 Quadrupole moment (field-independent basis, Debye-Ang):
   XX=            -43.9487   YY=            -37.1879   ZZ=            -70.0248
   XY=              9.2669   XZ=             -0.0009   YZ=              0.0099

  Exact polarizability: 165.220   1.326 116.047  -0.006   0.008  55.717
 Approx polarizability: 180.136  -1.848 134.636  -0.002   0.009  71.243

                      1                      2                      3
                      A                      A                      A
 Frequencies --     51.3512                74.1212               178.8935
 Red. masses --      5.0808                 4.8846                 4.9770
 Frc consts  --      0.0079                 0.0158                 0.0938
 IR Inten    --      1.4139                 2.2747                 1.3789

                      4                      5                      6
                      A                      A                      A
 Frequencies --    200.3142               226.3314               256.8459
 Red. masses --      4.1079                 1.1917                 1.9979
 Frc consts  --      0.0971                 0.0360                 0.0777
 IR Inten    --     10.4446                 0.6898                70.1723

                      7                      8                      9
                      A                      A                      A
 Frequencies --    266.3317               295.8618               347.5021
 Red. masses --      4.7821                 1.5393                 5.5397
 Frc consts  --      0.1999                 0.0794                 0.3941
 IR Inten    --      1.4289                68.0651                12.9306

                     10                     11                     12
                      A                      A                      A
 Frequencies --    372.0498               396.7101               424.9037
 Red. masses --      4.9424                 4.9853                 5.7120
 Frc consts  --      0.4031                 0.4623                 0.6076
 IR Inten    --      4.8380                 5.1143                 5.5135

                     13                     14                     15
                      A                      A                      A
 Frequencies --    433.3450               449.5603               520.3822
 Red. masses --      1.1408                 1.1169                 5.4982
 Frc consts  --      0.1262                 0.1330                 0.8772
 IR Inten    --      5.1899               210.5986                 0.2961

                     16                     17                     18
                      A                      A                      A
 Frequencies --    526.1625               543.9760               566.3551
 Red. masses --      7.0348                 4.0209                 3.6259
 Frc consts  --      1.1475                 0.7010                 0.6852
 IR Inten    --      4.7601                 9.3285                 0.0969

                     19                     20                     21
                      A                      A                      A
 Frequencies --    600.5946               606.7375               641.4863
 Red. masses --      3.6562                 7.9600                 4.5234
 Frc consts  --      0.7770                 1.7265                 1.0967
 IR Inten    --     10.2325                 0.4225                18.3523

                     22                     23                     24
                      A                      A                      A
 Frequencies --    643.0683               717.3172               764.8162
 Red. masses --      3.5239                 4.3186                 1.3625
 Frc consts  --      0.8586                 1.3092                 0.4696
 IR Inten    --     29.4852                 5.4911                78.6710

                     25                     26                     27
                      A                      A                      A
 Frequencies --    804.5014               818.1875               992.7157
 Red. masses --      1.3375                 1.1981                 2.3240
 Frc consts  --      0.5100                 0.4725                 1.3494
 IR Inten    --     38.3718                76.3605                37.8737

                     28                     29                     30
                      A                      A                      A
 Frequencies --   1040.0882              1058.5358              1084.3964
 Red. masses --      3.3949                 1.5923                 3.9191
 Frc consts  --      2.1638                 1.0512                 2.7153
 IR Inten    --      0.3101                 0.0393               127.1808

                     31                     32                     33
                      A                      A                      A
 Frequencies --   1097.2366              1188.2337              1201.0235
 Red. masses --      2.0279                 1.3280                 1.2162
 Frc consts  --      1.4384                 1.1047                 1.0336
 IR Inten    --     40.1467               104.5453                90.9545

                     34                     35                     36
                      A                      A                      A
 Frequencies --   1227.7906              1248.4022              1297.8308
 Red. masses --      1.5870                 2.1113                 2.0865
 Frc consts  --      1.4095                 1.9387                 2.0707
 IR Inten    --    120.0158                28.8757                67.3236

                     37                     38                     39
                      A                      A                      A
 Frequencies --   1324.9283              1396.8050              1420.1517
 Red. masses --      1.9974                 3.1385                 1.1715
 Frc consts  --      2.0659                 3.6078                 1.3921
 IR Inten    --    173.3688               350.9910                53.8134

                     40                     41                     42
                      A                      A                      A
 Frequencies --   1446.3381              1451.1811              1483.8624
 Red. masses --      2.0598                 4.0671                 1.0447
 Frc consts  --      2.5387                 5.0464                 1.3553
 IR Inten    --     10.2877                44.2048                17.8684

                     43                     44                     45
                      A                      A                      A
 Frequencies --   1495.0745              1528.4670              1556.0132
 Red. masses --      2.1240                 2.2586                 3.6911
 Frc consts  --      2.7973                 3.1088                 5.2654
 IR Inten    --    389.2630               224.1075               193.8515

                     46                     47                     48
                      A                      A                      A
 Frequencies --   1586.4722              1623.7777              1695.7124
 Red. masses --      3.3539                 5.6659                 6.8183
 Frc consts  --      4.9735                 8.8018                11.5513
 IR Inten    --    218.9709               198.4256               858.4061

                     49                     50                     51
                      A                      A                      A
 Frequencies --   3104.7284              3179.4688              3220.5531
 Red. masses --      1.0355                 1.0990                 1.1063
 Frc consts  --      5.8808                 6.5459                 6.7604
 IR Inten    --     11.6595                 1.0963                 5.8445

                     52                     53                     54
                      A                      A                      A
 Frequencies --   3222.5333              3244.1004              3503.4909
 Red. masses --      1.0934                 1.0936                 1.0669
 Frc consts  --      6.6901                 6.7812                 7.7155
 IR Inten    --      0.1054                 3.2960               276.3541

                     55                     56                     57
                      A                      A                      A
 Frequencies --   3806.6117              3814.5337              3817.3493
 Red. masses --      1.0666                 1.0670                 1.0672
 Frc consts  --      9.1064                 9.1476                 9.1625
 IR Inten    --    178.0578               106.9837               266.0684

 - Thermochemistry -
 -------------------
 Temperature   298.150 Kelvin.  Pressure   1.00000 Atm.
 Atom     1 has atomic number  6 and mass  12.00000

 Molecular mass:   169.05008 amu.
 Principal axes and moments of inertia in atomic units:
                           1         2         3
     Eigenvalues --  1186.885382383.217893559.08570
           X            0.99943   0.03368   0.00007
           Y           -0.03368   0.99943  -0.00008
           Z           -0.00007   0.00008   1.00000
 This molecule is an asymmetric top.
 Rotational symmetry number  1.
 Warning -- assumption of classical behavior for rotation
           may cause significant error
 Rotational temperatures (Kelvin)      0.07298     0.03634     0.02434
 Rotational constants (GHZ):           1.52057     0.75727     0.50708
 Zero-point vibrational energy     431170.7 (Joules/Mol)
                                  103.05227 (Kcal/Mol)
 Warning -- explicit consideration of  20 degrees of freedom as
           vibrations may cause significant error
 Vibrational temperatures:     73.88   106.64   257.39   288.21   325.64
          (Kelvin)            369.54   383.19   425.68   499.98   535.30
                              570.78   611.34   623.49   646.82   748.71
                              757.03   782.66   814.86   864.12   872.96
                              922.95   925.23  1032.06  1100.40  1157.50
                             1177.19  1428.29  1496.45  1522.99  1560.20
                             1578.68  1709.60  1728.00  1766.51  1796.17
                             1867.29  1906.27  2009.69  2043.28  2080.96
                             2087.92  2134.94  2151.08  2199.12  2238.75
                             2282.58  2336.25  2439.75  4467.01  4574.54
                             4633.65  4636.50  4667.53  5040.74  5476.86
                             5488.26  5492.31

 Zero-point correction=                           0.164224 (Hartree/Particle)
 Thermal correction to Energy=                    0.175573
 Thermal correction to Enthalpy=                  0.176517
 Thermal correction to Gibbs Free Energy=         0.127482
 Sum of electronic and zero-point Energies=           -610.217775
 Sum of electronic and thermal Energies=              -610.206427
 Sum of electronic and thermal Enthalpies=            -610.205483
 Sum of electronic and thermal Free Energies=         -610.254517

                     E (Thermal)             CV                S
                      KCal/Mol        Cal/Mol-Kelvin    Cal/Mol-Kelvin
 Total                  110.173             44.194            103.203
 Electronic               0.000              0.000              0.000
 Translational            0.889              2.981             41.283
 Rotational               0.889              2.981             30.688
 Vibrational            108.396             38.232             31.231
 Vibration     1          0.596              1.977              4.765
 Vibration     2          0.599              1.966              4.041
 Vibration     3          0.629              1.868              2.340
 Vibration     4          0.638              1.839              2.130
 Vibration     5          0.650              1.801              1.908
 Vibration     6          0.666              1.751              1.683
 Vibration     7          0.672              1.735              1.620
 Vibration     8          0.690              1.681              1.440
 Vibration     9          0.725              1.580              1.177
 Vibration    10          0.744              1.530              1.071
 Vibration    11          0.763              1.477              0.975
 Vibration    12          0.787              1.416              0.875
 Vibration    13          0.794              1.398              0.848
 Vibration    14          0.808              1.362              0.797
 Vibration    15          0.875              1.205              0.609
 Vibration    16          0.881              1.192              0.596
 Vibration    17          0.899              1.153              0.557
 Vibration    18          0.922              1.104              0.511
 Vibration    19          0.959              1.031              0.449
 Vibration    20          0.965              1.018              0.438

 Optimization completed.
    -- Stationary point found.
 Normal termination of Gaussian 09 at Sun Dec 15 23:36:40 2024.
