 Gaussian 09, Revision E.01,
 Gaussian 09:  ES64L-G09RevE.01 30-Nov-2015

 ----------------------------
 # opt freq b3lyp/6-31+g(d,p)
 ----------------------------

 ----------
 [No Title]
 ----------
 Symbolic Z-matrix:
 Charge =  1 Multiplicity = 1

 SCF Done:  E(RB3LYP) =  -610.855092939     A.U. after   17 cycles
 SCF Done:  E(RB3LYP) =  -610.896386098     A.U. after   14 cycles
 SCF Done:  E(RB3LYP) =  -610.910786902     A.U. after   15 cycles
 SCF Done:  E(RB3LYP) =  -610.913837408     A.U. after   14 cycles
 SCF Done:  E(RB3LYP) =  -610.908407608     A.U. after   16 cycles
 SCF Done:  E(RB3LYP) =  -610.924748457     A.U. after   14 cycles
 SCF Done:  E(RB3LYP) =  -610.935040623     A.U. after   13 cycles
 SCF Done:  E(RB3LYP) =  -610.923383464     A.U. after   15 cycles
 SCF Done:  E(RB3LYP) =  -610.942180315     A.U. after   12 cycles
 SCF Done:  E(RB3LYP) =  -610.946025220     A.U. after   12 cycles
 SCF Done:  E(RB3LYP) =  -610.968670548     A.U. after   12 cycles
 SCF Done:  E(RB3LYP) =  -610.968693127     A.U. after   10 cycles
 SCF Done:  E(RB3LYP) =  -610.968703512     A.U. after   10 cycles
 SCF Done:  E(RB3LYP) =  -610.968710867     A.U. after   10 cycles
 SCF Done:  E(RB3LYP) =  -610.968716685     A.U. after   10 cycles
 SCF Done:  E(RB3LYP) =  -610.968723258     A.U. after   10 cycles
 SCF Done:  E(RB3LYP) =  -610.968727109     A.U. after   11 cycles
 SCF Done:  E(RB3LYP) =  -610.968728383     A.U. after    9 cycles
 SCF Done:  E(RB3LYP) =  -610.968729043     A.U. after    9 cycles
 Optimization completed.
    -- Stationary point found.
 Normal termination of Gaussian 09 at Thu Jun 20 16:33:18 2024.

 ----------------------------------------------------------------------
 #N Geom=AllCheck Guess=TCheck SCRF=Check GenChk RB3LYP/6-31+G(d,p) Fre
 q
 ----------------------------------------------------------------------

 Structure from the checkpoint file:  "b3lypTHAPyang.chk"
 ----------
 [No Title]
 ----------
 Charge =  1 Multiplicity = 1

                         Standard orientation:
 ---------------------------------------------------------------------
 Center     Atomic      Atomic             Coordinates (Angstroms)
 Number     Number       Type             X           Y           Z
 ---------------------------------------------------------------------
      1          6           0       -1.550730   -1.266928   -0.000274
      2          6           0       -2.286773   -0.076182   -0.000338
      3          6           0       -1.637483    1.174960    0.000276
      4          6           0       -0.260572    1.212049    0.000542
      5          6           0        0.559162    0.024334    0.000498
      6          6           0       -0.167120   -1.226258    0.000528
      7          8           0        0.555480   -2.358938    0.001271
      8          6           0        1.983873    0.082271   -0.000324
      9          6           0        2.917168   -1.080618   -0.001036
     10          8           0        2.630034    1.218020   -0.000326
     11          8           0        0.402256    2.402929    0.000378
     12          8           0       -3.616218   -0.198711   -0.000852
     13          1           0       -2.084653   -2.211436   -0.000505
     14          1           0       -2.213221    2.096137    0.000066
     15          1           0       -0.016783   -3.141501    0.000460
     16          1           0        2.748141   -1.713640    0.874663
     17          1           0        2.746421   -1.713860   -0.876256
     18          1           0        3.940044   -0.704993   -0.002125
     19          1           0        2.026133    1.995365    0.000284
     20          1           0       -0.189173    3.170530    0.001033
     21          1           0       -4.074488    0.655227   -0.000617
 ---------------------------------------------------------------------

 SCF Done:  E(RB3LYP) =  -610.968729043     A.U. after    1 cycles

 The electronic state is 1-A.
 Alpha  occ. eigenvalues --  -19.39059 -19.38175 -19.36582 -19.36369 -10.48143
 Alpha  occ. eigenvalues --  -10.46057 -10.45281 -10.45040 -10.38975 -10.36884
 Alpha  occ. eigenvalues --  -10.35671 -10.33970  -1.28412  -1.26012  -1.25218
 Alpha  occ. eigenvalues --   -1.24839  -1.03529  -0.96582  -0.92835  -0.91262
 Alpha  occ. eigenvalues --   -0.83714  -0.82060  -0.79598  -0.76601  -0.74243
 Alpha  occ. eigenvalues --   -0.72101  -0.68434  -0.66204  -0.63457  -0.62353
 Alpha  occ. eigenvalues --   -0.61438  -0.61055  -0.60062  -0.58598  -0.57692
 Alpha  occ. eigenvalues --   -0.56942  -0.56094  -0.54155  -0.53904  -0.52405
 Alpha  occ. eigenvalues --   -0.51840  -0.47736  -0.41615  -0.40476
 Alpha virt. eigenvalues --   -0.24844  -0.16813  -0.15002  -0.14070  -0.13067
 Alpha virt. eigenvalues --   -0.12699  -0.11019  -0.08552  -0.07967  -0.07670
 Alpha virt. eigenvalues --   -0.07540  -0.05795  -0.04783  -0.04530  -0.03991

 Mulliken charges:
               1
     1  C    1.019391
     2  C   -0.806276
     3  C    0.757838
     4  C   -0.959612
     5  C    2.160763
     6  C   -2.235107
     7  O   -0.517591
     8  C    0.624942
     9  C   -0.203046
    10  O   -0.384042
    11  O   -0.609554
    12  O   -0.463911
    13  H    0.158823
    14  H    0.135833
    15  H    0.413574
    16  H    0.214871
    17  H    0.214773
    18  H    0.202859
    19  H    0.460663
    20  H    0.428645
    21  H    0.386163
 Sum of Mulliken charges =   1.00000

 Dipole moment (field-independent basis, Debye):
    X=             -1.6934    Y=              1.6708    Z=             -0.0001  Tot=              2.3789
 Quadrupole moment (field-independent basis, Debye-Ang):
   XX=            -43.2055   YY=            -36.8302   ZZ=            -69.7097
   XY=             -8.9124   XZ=             -0.0028   YZ=              0.0102

  Exact polarizability: 164.277  -2.139 116.722  -0.001   0.006  55.833
 Approx polarizability: 272.142   4.213 185.722   0.020   0.005  84.276

                      1                      2                      3
                      A                      A                      A
 Frequencies --     58.8286                92.1930               192.0351
 Red. masses --      4.6444                 5.1154                 2.7595
 Frc consts  --      0.0095                 0.0256                 0.0600
 IR Inten    --      0.4391                 0.1168                 3.3432

                      4                      5                      6
                      A                      A                      A
 Frequencies --    209.9458               225.6063               264.0978
 Red. masses --      4.0557                 1.4401                 4.7418
 Frc consts  --      0.1053                 0.0432                 0.1949
 IR Inten    --      3.1707                 0.0634                 1.1889

                      7                      8                      9
                      A                      A                      A
 Frequencies --    282.3436               347.6820               348.0594
 Red. masses --      2.9360                 1.2169                 5.4826
 Frc consts  --      0.1379                 0.0867                 0.3913
 IR Inten    --     38.7741                96.3721                12.7406

                     10                     11                     12
                      A                      A                      A
 Frequencies --    370.2419               395.6881               424.2357
 Red. masses --      4.9465                 4.9216                 5.7564
 Frc consts  --      0.3995                 0.4540                 0.6104
 IR Inten    --      5.1199                 5.0242                 5.3252

                     13                     14                     15
                      A                      A                      A
 Frequencies --    452.9069               471.0519               525.6115
 Red. masses --      1.1276                 1.1194                 7.0342
 Frc consts  --      0.1363                 0.1463                 1.1450
 IR Inten    --     34.5327               181.1895                 4.9973

                     16                     17                     18
                      A                      A                      A
 Frequencies --    542.6837               569.9341               606.5000
 Red. masses --      4.0172                 2.7743                 7.8517
 Frc consts  --      0.6970                 0.5310                 1.7017
 IR Inten    --      9.0134                 0.4076                 0.4950

                     19                     20                     21
                      A                      A                      A
 Frequencies --    622.7408               643.1732               650.7621
 Red. masses --      3.3845                 3.4754                 2.9662
 Frc consts  --      0.7733                 0.8471                 0.7401
 IR Inten    --     10.6936                30.0744                21.6323

                     22                     23                     24
                      A                      A                      A
 Frequencies --    713.9090               729.6667               806.6876
 Red. masses --      4.3086                 5.0458                 1.6451
 Frc consts  --      1.2938                 1.5828                 0.6307
 IR Inten    --      5.4487                 3.6606                44.6675

                     25                     26                     27
                      A                      A                      A
 Frequencies --    827.0369               840.2779               984.0630
 Red. masses --      1.2527                 1.5497                 2.2585
 Frc consts  --      0.5048                 0.6447                 1.2886
 IR Inten    --    123.4876                22.0663                35.9212

                     28                     29                     30
                      A                      A                      A
 Frequencies --   1034.6461              1052.3274              1079.4780
 Red. masses --      3.3364                 1.6608                 2.8251
 Frc consts  --      2.1043                 1.0836                 1.9396
 IR Inten    --      0.5172                 0.4809               104.1997

                     31                     32                     33
                      A                      A                      A
 Frequencies --   1089.2493              1179.7134              1192.0870
 Red. masses --      2.5544                 1.3068                 1.2219
 Frc consts  --      1.7856                 1.0715                 1.0231
 IR Inten    --     51.6767               110.7079                73.8289

                     34                     35                     36
                      A                      A                      A
 Frequencies --   1217.3699              1242.5910              1288.9437
 Red. masses --      1.5670                 2.2926                 2.1477
 Frc consts  --      1.3683                 2.0856                 2.1023
 IR Inten    --    118.9976                41.3270                60.9565

                     37                     38                     39
                      A                      A                      A
 Frequencies --   1313.3587              1385.5643              1399.8493
 Red. masses --      2.0856                 2.7905                 1.1895
 Frc consts  --      2.1195                 3.1563                 1.3734
 IR Inten    --    174.7415               338.1074                30.0035

                     40                     41                     42
                      A                      A                      A
 Frequencies --   1431.1668              1435.5321              1465.8931
 Red. masses --      2.3249                 2.9354                 1.0440
 Frc consts  --      2.8057                 3.5640                 1.3217
 IR Inten    --     28.8022                35.4760                17.7861

                     43                     44                     45
                      A                      A                      A
 Frequencies --   1481.5076              1517.4103              1545.0910
 Red. masses --      2.0653                 2.3817                 4.1467
 Frc consts  --      2.6708                 3.2310                 5.8325
 IR Inten    --    370.1916               261.7111               210.2056

                     46                     47                     48
                      A                      A                      A
 Frequencies --   1572.7926              1607.9785              1683.8871
 Red. masses --      3.3505                 5.6003                 6.7960
 Frc consts  --      4.8832                 8.5314                11.3535
 IR Inten    --    209.7713               189.4043               818.9075

                     49                     50                     51
                      A                      A                      A
 Frequencies --   3070.4869              3134.3689              3181.6309
 Red. masses --      1.0363                 1.0985                 1.1058
 Frc consts  --      5.7567                 6.3586                 6.5950
 IR Inten    --     13.3081                 1.0696                 5.6264

                     52                     53                     54
                      A                      A                      A
 Frequencies --   3191.5952              3213.9425              3481.3622
 Red. masses --      1.0930                 1.0932                 1.0668
 Frc consts  --      6.5596                 6.6531                 7.6175
 IR Inten    --      0.0399                 2.7765               269.1085

                     55                     56                     57
                      A                      A                      A
 Frequencies --   3790.1144              3796.6109              3799.5459
 Red. masses --      1.0666                 1.0669                 1.0671
 Frc consts  --      9.0271                 9.0610                 9.0765
 IR Inten    --    173.7404               102.2042               244.6501

 - Thermochemistry -
 -------------------
 Temperature   298.150 Kelvin.  Pressure   1.00000 Atm.
 Atom     1 has atomic number  6 and mass  12.00000

 Molecular mass:   169.05008 amu.
 Principal axes and moments of inertia in atomic units:
                           1         2         3
     Eigenvalues --  1188.602032386.618263564.18621
           X            0.99943  -0.03375  -0.00001
           Y            0.03375   0.99943   0.00002
           Z            0.00001  -0.00002   1.00000
 This molecule is an asymmetric top.
 Rotational symmetry number  1.
 Warning -- assumption of classical behavior for rotation
           may cause significant error
 Rotational temperatures (Kelvin)      0.07287     0.03629     0.02430
 Rotational constants (GHZ):           1.51837     0.75619     0.50635
 Zero-point vibrational energy     431098.6 (Joules/Mol)
                                  103.03504 (Kcal/Mol)
 Warning -- explicit consideration of  18 degrees of freedom as
           vibrations may cause significant error
 Vibrational temperatures:     84.64   132.64   276.30   302.06   324.60
          (Kelvin)            379.98   406.23   500.24   500.78   532.69
                              569.31   610.38   651.63   677.74   756.24
                              780.80   820.01   872.62   895.98   925.38
                              936.30  1027.15  1049.83  1160.64  1189.92
                             1208.97  1415.85  1488.62  1514.06  1553.13
                             1567.18  1697.34  1715.15  1751.52  1787.81
                             1854.50  1889.63  1993.52  2014.07  2059.13
                             2065.41  2109.09  2131.56  2183.21  2223.04
                             2262.89  2313.52  2422.73  4417.74  4509.65
                             4577.65  4591.99  4624.14  5008.90  5453.12
                             5462.47  5466.69

 Zero-point correction=                           0.164197 (Hartree/Particle)
 Thermal correction to Energy=                    0.175196
 Thermal correction to Enthalpy=                  0.176140
 Thermal correction to Gibbs Free Energy=         0.127988
 Sum of electronic and zero-point Energies=           -610.804532
 Sum of electronic and thermal Energies=              -610.793533
 Sum of electronic and thermal Enthalpies=            -610.792589
 Sum of electronic and thermal Free Energies=         -610.840741

                     E (Thermal)             CV                S
                      KCal/Mol        Cal/Mol-Kelvin    Cal/Mol-Kelvin
 Total                  109.937             43.393            101.346
 Electronic               0.000              0.000              0.000
 Translational            0.889              2.981             41.283
 Rotational               0.889              2.981             30.692
 Vibrational            108.160             37.432             29.370
 Vibration     1          0.596              1.974              4.496
 Vibration     2          0.602              1.955              3.613
 Vibration     3          0.634              1.851              2.208
 Vibration     4          0.642              1.826              2.044
 Vibration     5          0.650              1.802              1.914
 Vibration     6          0.671              1.739              1.635
 Vibration     7          0.681              1.706              1.519
 Vibration     8          0.725              1.580              1.177
 Vibration     9          0.726              1.579              1.175
 Vibration    10          0.742              1.533              1.079
 Vibration    11          0.762              1.479              0.979
 Vibration    12          0.786              1.418              0.878
 Vibration    13          0.811              1.354              0.787
 Vibration    14          0.828              1.314              0.735
 Vibration    15          0.881              1.193              0.597
 Vibration    16          0.898              1.156              0.560
 Vibration    17          0.926              1.096              0.504
 Vibration    18          0.965              1.018              0.439

 Normal termination of Gaussian 09 at Thu Jun 20 16:35:19 2024.
