 Gaussian 09, Revision E.01,
 Gaussian 09:  ES64L-G09RevE.01 30-Nov-2015

 ----------------------------
 # opt freq b3lyp/6-31+g(d,p)
 ----------------------------

 ----------
 [No Title]
 ----------
 Symbolic Z-matrix:
 Charge =  0 Multiplicity = 1

 SCF Done:  E(RB3LYP) =  -610.563747853     A.U. after   17 cycles
 SCF Done:  E(RB3LYP) =  -610.602977757     A.U. after   13 cycles
 SCF Done:  E(RB3LYP) =  -610.607358659     A.U. after   13 cycles
 SCF Done:  E(RB3LYP) =  -610.599555752     A.U. after   14 cycles
 SCF Done:  E(RB3LYP) =  -610.610928392     A.U. after   12 cycles
 SCF Done:  E(RB3LYP) =  -610.611718961     A.U. after   13 cycles
 SCF Done:  E(RB3LYP) =  -610.612282942     A.U. after   13 cycles
 SCF Done:  E(RB3LYP) =  -610.612191029     A.U. after   12 cycles
 SCF Done:  E(RB3LYP) =  -610.612317338     A.U. after   11 cycles
 SCF Done:  E(RB3LYP) =  -610.612332733     A.U. after   10 cycles
 SCF Done:  E(RB3LYP) =  -610.613925254     A.U. after   11 cycles
 SCF Done:  E(RB3LYP) =  -610.614358124     A.U. after   12 cycles
 SCF Done:  E(RB3LYP) =  -610.615047145     A.U. after   13 cycles
 SCF Done:  E(RB3LYP) =  -610.615356442     A.U. after   13 cycles
 SCF Done:  E(RB3LYP) =  -610.615472756     A.U. after   13 cycles
 SCF Done:  E(RB3LYP) =  -610.615388247     A.U. after   12 cycles
 SCF Done:  E(RB3LYP) =  -610.615526729     A.U. after   12 cycles
 SCF Done:  E(RB3LYP) =  -610.615528753     A.U. after   10 cycles
 SCF Done:  E(RB3LYP) =  -610.615529069     A.U. after   10 cycles
 Optimization completed.
    -- Stationary point found.
 Normal termination of Gaussian 09 at Thu Jun 20 15:11:46 2024.

 ----------------------------------------------------------------------
 #N Geom=AllCheck Guess=TCheck SCRF=Check GenChk RB3LYP/6-31+G(d,p) Fre
 q
 ----------------------------------------------------------------------

 Structure from the checkpoint file:  "b3lypTHAPgd3.chk"
 ----------
 [No Title]
 ----------
 Charge =  0 Multiplicity = 1

                         Standard orientation:
 ---------------------------------------------------------------------
 Center     Atomic      Atomic             Coordinates (Angstroms)
 Number     Number       Type             X           Y           Z
 ---------------------------------------------------------------------
      1          6           0       -1.530204   -1.250881    0.000011
      2          6           0       -2.264222   -0.056422   -0.000148
      3          6           0       -1.627575    1.179226   -0.000053
      4          6           0       -0.228570    1.230917    0.000190
      5          6           0        0.569131    0.035674    0.000253
      6          6           0       -0.142857   -1.197910    0.000251
      7          8           0        0.577425   -2.359109    0.000547
      8          6           0        2.031163    0.166893   -0.000110
      9          6           0        2.964422   -1.021090   -0.000668
     10          8           0        2.552536    1.304052    0.000023
     11          8           0        0.335783    2.440405    0.000284
     12          8           0       -3.620056   -0.179523   -0.000434
     13          1           0       -2.058471   -2.199259    0.000100
     14          1           0       -2.181322    2.112716   -0.000223
     15          1           0       -0.029341   -3.111556    0.000506
     16          1           0        2.795668   -1.653281   -0.876796
     17          1           0        3.986827   -0.640972   -0.000996
     18          1           0        2.796249   -1.653269    0.875604
     19          1           0        1.329603    2.285556    0.000177
     20          1           0       -4.032449    0.695030   -0.000086
 ---------------------------------------------------------------------

 SCF Done:  E(RB3LYP) =  -610.615529069     A.U. after    1 cycles

 The electronic state is 1-A.
 Alpha  occ. eigenvalues --  -19.21557 -19.21357 -19.17755 -19.15648 -10.29544
 Alpha  occ. eigenvalues --  -10.28909 -10.28502 -10.28076 -10.21311 -10.20379
 Alpha  occ. eigenvalues --  -10.19857 -10.19063  -1.09644  -1.09222  -1.07784
 Alpha  occ. eigenvalues --   -1.04134  -0.86699  -0.78651  -0.76135  -0.73866
 Alpha  occ. eigenvalues --   -0.66525  -0.64625  -0.60498  -0.58462  -0.52950
 Alpha  occ. eigenvalues --   -0.52594  -0.51134  -0.48721  -0.46409  -0.45284
 Alpha  occ. eigenvalues --   -0.44009  -0.43643  -0.42374  -0.41931  -0.41569
 Alpha  occ. eigenvalues --   -0.40635  -0.39070  -0.37475  -0.37238  -0.36500
 Alpha  occ. eigenvalues --   -0.30953  -0.27082  -0.24915  -0.23677
 Alpha virt. eigenvalues --   -0.06233  -0.01704  -0.01054  -0.00985   0.01607
 Alpha virt. eigenvalues --    0.02221   0.03240   0.03711   0.04320   0.04606
 Alpha virt. eigenvalues --    0.05978   0.06431   0.07282   0.07664   0.08826

 Mulliken charges:
               1
     1  C    0.902685
     2  C   -0.651225
     3  C    0.922751
     4  C   -1.154874
     5  C    2.151996
     6  C   -2.177912
     7  O   -0.543915
     8  C    0.650327
     9  C   -0.478461
    10  O   -0.498701
    11  O   -0.553104
    12  O   -0.522357
    13  H    0.115639
    14  H    0.121651
    15  H    0.383444
    16  H    0.178349
    17  H    0.170258
    18  H    0.178364
    19  H    0.440720
    20  H    0.364364
 Sum of Mulliken charges =  -0.00000

 Dipole moment (field-independent basis, Debye):
    X=             -2.3851    Y=             -3.0918    Z=             -0.0001  Tot=              3.9049
 Quadrupole moment (field-independent basis, Debye-Ang):
   XX=            -67.4909   YY=            -66.3211   ZZ=            -71.9407
   XY=             -8.8708   XZ=             -0.0041   YZ=             -0.0013

  Exact polarizability: 155.697   2.018 123.252   0.002   0.001  61.283
 Approx polarizability: 234.755  15.563 204.787   0.011   0.003  92.011

                      1                      2                      3
                      A                      A                      A
 Frequencies --     60.4938               108.7215               196.1929
 Red. masses --      3.8649                 9.6051                 1.9297
 Frc consts  --      0.0083                 0.0669                 0.0438
 IR Inten    --      1.0958                 0.3423                 3.1192

                      4                      5                      6
                      A                      A                      A
 Frequencies --    217.4814               226.1555               262.5837
 Red. masses --      1.7981                 4.0658                 4.5419
 Frc consts  --      0.0501                 0.1225                 0.1845
 IR Inten    --      0.2631                 1.2876                10.9029

                      7                      8                      9
                      A                      A                      A
 Frequencies --    286.7395               338.5409               359.8685
 Red. masses --      4.4001                 5.7696                 5.2676
 Frc consts  --      0.2132                 0.3896                 0.4019
 IR Inten    --      2.4128                 8.9529                 3.3518

                     10                     11                     12
                      A                      A                      A
 Frequencies --    378.1457               383.8592               397.5445
 Red. masses --      4.8526                 1.1660                 1.1176
 Frc consts  --      0.4088                 0.1012                 0.1041
 IR Inten    --      6.1978                 3.0587               199.9815

                     13                     14                     15
                      A                      A                      A
 Frequencies --    434.0465               530.1323               574.9451
 Red. masses --      6.5499                 6.7813                 6.0373
 Frc consts  --      0.7270                 1.1229                 1.1758
 IR Inten    --      4.0888                 9.4177                21.9626

                     16                     17                     18
                      A                      A                      A
 Frequencies --    581.0873               610.4567               624.1236
 Red. masses --      3.0130                 7.5280                 3.2176
 Frc consts  --      0.5994                 1.6529                 0.7385
 IR Inten    --      0.1376                 7.1079                 1.1551

                     19                     20                     21
                      A                      A                      A
 Frequencies --    640.7296               644.4149               711.0637
 Red. masses --      2.8431                 4.0034                 4.0744
 Frc consts  --      0.6877                 0.9795                 1.2138
 IR Inten    --     12.2736                16.0343                12.0535

                     22                     23                     24
                      A                      A                      A
 Frequencies --    728.7707               794.6780               810.1719
 Red. masses --      5.2268                 1.6961                 1.6577
 Frc consts  --      1.6356                 0.6311                 0.6411
 IR Inten    --      0.0582                41.0178                47.3598

                     25                     26                     27
                      A                      A                      A
 Frequencies --    959.8873               975.0539              1032.0603
 Red. masses --      1.0625                 2.2850                 3.4548
 Frc consts  --      0.5768                 1.2799                 2.1681
 IR Inten    --     84.6570                45.7780                12.3991

                     28                     29                     30
                      A                      A                      A
 Frequencies --   1048.6212              1083.4262              1093.2294
 Red. masses --      1.7790                 2.6066                 4.4206
 Frc consts  --      1.1526                 1.8027                 3.1128
 IR Inten    --      2.2530                63.8438                58.0279

                     31                     32                     33
                      A                      A                      A
 Frequencies --   1182.7375              1203.8087              1225.8578
 Red. masses --      1.3149                 1.4652                 1.8291
 Frc consts  --      1.0837                 1.2510                 1.6195
 IR Inten    --    179.2487                19.8158               167.0615

                     34                     35                     36
                      A                      A                      A
 Frequencies --   1271.9766              1308.4773              1339.1158
 Red. masses --      1.6966                 3.4254                 3.6145
 Frc consts  --      1.6173                 3.4553                 3.8189
 IR Inten    --    231.1338               108.9174               151.0489

                     37                     38                     39
                      A                      A                      A
 Frequencies --   1402.6110              1411.2631              1449.4047
 Red. masses --      1.6612                 2.7463                 1.7691
 Frc consts  --      1.9255                 3.2226                 2.1897
 IR Inten    --     54.1792                 9.0417                49.6508

                     40                     41                     42
                      A                      A                      A
 Frequencies --   1466.0808              1478.9605              1490.9811
 Red. masses --      1.6816                 1.0465                 2.9930
 Frc consts  --      2.1295                 1.3487                 3.9201
 IR Inten    --      2.8264                11.6823               196.9308

                     43                     44                     45
                      A                      A                      A
 Frequencies --   1559.6936              1639.0533              1655.1660
 Red. masses --      2.5265                 4.2104                 8.0654
 Frc consts  --      3.6211                 6.6644                13.0184
 IR Inten    --    102.9953               155.9605               282.2965

                     46                     47                     48
                      A                      A                      A
 Frequencies --   1682.7128              3047.6531              3063.8737
 Red. masses --      4.3891                 1.0724                 1.0351
 Frc consts  --      7.3223                 5.8688                 5.7250
 IR Inten    --    690.5318               505.7434                 0.1283

                     49                     50                     51
                      A                      A                      A
 Frequencies --   3132.3598              3164.3650              3197.6393
 Red. masses --      1.0993                 1.1057                 1.0917
 Frc consts  --      6.3547                 6.5230                 6.5767
 IR Inten    --      4.2443                15.4377                 3.4645

                     52                     53                     54
                      A                      A                      A
 Frequencies --   3202.3757              3821.1023              3821.7783
 Red. masses --      1.0919                 1.0661                 1.0662
 Frc consts  --      6.5974                 9.1716                 9.1751
 IR Inten    --      4.0632                99.5130                59.7633

 - Thermochemistry -
 -------------------
 Temperature   298.150 Kelvin.  Pressure   1.00000 Atm.
 Atom     1 has atomic number  6 and mass  12.00000

 Molecular mass:   168.04226 amu.
 Principal axes and moments of inertia in atomic units:
                           1         2         3
     Eigenvalues --  1169.927672367.626313526.50163
           X            0.99941  -0.03434  -0.00001
           Y            0.03434   0.99941   0.00000
           Z            0.00001  -0.00000   1.00000
 This molecule is an asymmetric top.
 Rotational symmetry number  1.
 Warning -- assumption of classical behavior for rotation
           may cause significant error
 Rotational temperatures (Kelvin)      0.07403     0.03658     0.02456
 Rotational constants (GHZ):           1.54261     0.76226     0.51177
 Zero-point vibrational energy     396635.5 (Joules/Mol)
                                   94.79815 (Kcal/Mol)
 Warning -- explicit consideration of  17 degrees of freedom as
           vibrations may cause significant error
 Vibrational temperatures:     87.04   156.43   282.28   312.91   325.39
          (Kelvin)            377.80   412.55   487.08   517.77   544.07
                              552.29   571.98   624.50   762.74   827.22
                              836.05   878.31   897.97   921.87   927.17
                             1023.06  1048.54  1143.36  1165.66  1381.06
                             1402.88  1484.90  1508.73  1558.81  1572.91
                             1701.69  1732.01  1763.73  1830.09  1882.60
                             1926.69  2018.04  2030.49  2085.37  2109.36
                             2127.89  2145.19  2244.05  2358.23  2381.41
                             2421.05  4384.89  4408.23  4506.76  4552.81
                             4600.68  4607.50  5497.71  5498.68

 Zero-point correction=                           0.151070 (Hartree/Particle)
 Thermal correction to Energy=                    0.161752
 Thermal correction to Enthalpy=                  0.162696
 Thermal correction to Gibbs Free Energy=         0.115159
 Sum of electronic and zero-point Energies=           -610.464459
 Sum of electronic and thermal Energies=              -610.453777
 Sum of electronic and thermal Enthalpies=            -610.452833
 Sum of electronic and thermal Free Energies=         -610.500370

                     E (Thermal)             CV                S
                      KCal/Mol        Cal/Mol-Kelvin    Cal/Mol-Kelvin
 Total                  101.501             41.769            100.051
 Electronic               0.000              0.000              0.000
 Translational            0.889              2.981             41.265
 Rotational               0.889              2.981             30.658
 Vibrational             99.724             35.807             28.127
 Vibration     1          0.597              1.973              4.441
 Vibration     2          0.606              1.942              3.292
 Vibration     3          0.636              1.845              2.169
 Vibration     4          0.646              1.814              1.980
 Vibration     5          0.650              1.801              1.909
 Vibration     6          0.670              1.741              1.645
 Vibration     7          0.684              1.698              1.493
 Vibration     8          0.719              1.598              1.219
 Vibration     9          0.734              1.555              1.123
 Vibration    10          0.748              1.517              1.047
 Vibration    11          0.753              1.505              1.024
 Vibration    12          0.764              1.475              0.972
 Vibration    13          0.795              1.396              0.846
 Vibration    14          0.885              1.183              0.587
 Vibration    15          0.931              1.085              0.495
 Vibration    16          0.938              1.072              0.483
 Vibration    17          0.970              1.010              0.432

 Optimization completed.
    -- Stationary point found.
 Normal termination of Gaussian 09 at Thu Jun 20 15:13:37 2024.
