 Gaussian 09, Revision E.01,
 Gaussian 09:  ES64L-G09RevE.01 30-Nov-2015

 -----------------------------
 # opt freq b3pw91/6-31+g(d,p)
 -----------------------------

 ----------
 [No Title]
 ----------
 Symbolic Z-matrix:
 Charge =  0 Multiplicity = 1

 SCF Done:  E(RB3PW91) =  -610.379027391     A.U. after   15 cycles
 SCF Done:  E(RB3PW91) =  -610.379072133     A.U. after   13 cycles
 SCF Done:  E(RB3PW91) =  -610.379169236     A.U. after   12 cycles
 SCF Done:  E(RB3PW91) =  -610.379298708     A.U. after   11 cycles
 SCF Done:  E(RB3PW91) =  -610.379307540     A.U. after   10 cycles
 SCF Done:  E(RB3PW91) =  -610.379309292     A.U. after   10 cycles
 SCF Done:  E(RB3PW91) =  -610.379307283     A.U. after   10 cycles
 SCF Done:  E(RB3PW91) =  -610.379309970     A.U. after   10 cycles
 Optimization completed.
    -- Stationary point found.
 Normal termination of Gaussian 09 at Sun Dec 15 20:59:54 2024.

 ----------------------------------------------------------------------
 #N Geom=AllCheck Guess=TCheck SCRF=Check GenChk RB3PW91/6-31+G(d,p) Fr
 eq
 ----------------------------------------------------------------------

 Structure from the checkpoint file:  "B3PW91THAP.chk"
 ----------
 [No Title]
 ----------
 Charge =  0 Multiplicity = 1

                         Standard orientation:
 ---------------------------------------------------------------------
 Center     Atomic      Atomic             Coordinates (Angstroms)
 Number     Number       Type             X           Y           Z
 ---------------------------------------------------------------------
      1          6           0       -1.529278    1.247175    0.000059
      2          6           0       -2.260114    0.052631    0.000035
      3          6           0       -1.622116   -1.180327   -0.000024
      4          6           0       -0.224810   -1.229342   -0.000061
      5          6           0        0.567179   -0.033094   -0.000032
      6          6           0       -0.143834    1.197764    0.000029
      7          8           0        0.572333    2.353627    0.000057
      8          6           0        2.023660   -0.164368   -0.000055
      9          6           0        2.953472    1.018731    0.000021
     10          8           0        2.543255   -1.300790   -0.000003
     11          8           0        0.346137   -2.427883   -0.000126
     12          8           0       -3.609869    0.172570    0.000070
     13          1           0       -2.060929    2.194087    0.000102
     14          1           0       -2.173479   -2.115631   -0.000046
     15          1           0       -0.036675    3.101863    0.000121
     16          1           0        2.784518    1.650757    0.876121
     17          1           0        3.976098    0.639331    0.000052
     18          1           0        2.784589    1.650806   -0.876055
     19          1           0        1.341787   -2.253564   -0.000164
     20          1           0       -4.015716   -0.702868    0.000046
 ---------------------------------------------------------------------

 SCF Done:  E(RB3PW91) =  -610.379309970     A.U. after    1 cycles

 The electronic state is 1-A.
 Alpha  occ. eigenvalues --  -19.20544 -19.20294 -19.16532 -19.14667 -10.28157
 Alpha  occ. eigenvalues --  -10.27520 -10.27097 -10.26618 -10.19891 -10.18952
 Alpha  occ. eigenvalues --  -10.18401 -10.17632  -1.10292  -1.09846  -1.08367
 Alpha  occ. eigenvalues --   -1.04588  -0.87068  -0.79028  -0.76356  -0.74218
 Alpha  occ. eigenvalues --   -0.66851  -0.64867  -0.60765  -0.58687  -0.53241
 Alpha  occ. eigenvalues --   -0.52760  -0.51312  -0.48798  -0.46718  -0.45355
 Alpha  occ. eigenvalues --   -0.44178  -0.43888  -0.42446  -0.41982  -0.41840
 Alpha  occ. eigenvalues --   -0.40822  -0.39028  -0.37434  -0.37170  -0.36641
 Alpha  occ. eigenvalues --   -0.31002  -0.27083  -0.24988  -0.23687
 Alpha virt. eigenvalues --   -0.06224  -0.00768  -0.00486   0.00161   0.02452
 Alpha virt. eigenvalues --    0.02740   0.04414   0.04782   0.05257   0.05847
 Alpha virt. eigenvalues --    0.07083   0.07523   0.08450   0.08683   0.10041

 Mulliken charges:
               1
     1  C    1.166813
     2  C   -0.931317
     3  C    1.178911
     4  C   -1.415564
     5  C    2.466108
     6  C   -2.564785
     7  O   -0.511597
     8  C    0.503666
     9  C   -0.453958
    10  O   -0.474919
    11  O   -0.527753
    12  O   -0.497939
    13  H    0.140299
    14  H    0.146338
    15  H    0.387121
    16  H    0.193809
    17  H    0.189520
    18  H    0.193805
    19  H    0.442944
    20  H    0.368498
 Sum of Mulliken charges =  -0.00000

 Dipole moment (field-independent basis, Debye):
    X=             -2.3562    Y=              3.1323    Z=              0.0000  Tot=              3.9196
 Quadrupole moment (field-independent basis, Debye-Ang):
   XX=            -66.1209   YY=            -65.2016   ZZ=            -71.4501
   XY=              8.8620   XZ=             -0.0003   YZ=              0.0006

  Exact polarizability: 153.992  -1.982 121.491  -0.001   0.002  59.925
 Approx polarizability: 233.098 -15.576 202.151  -0.002   0.003  88.613

                      1                      2                      3
                      A                      A                      A
 Frequencies --     59.9967               111.1041               193.1487
 Red. masses --      3.8688                 9.2698                 1.5624
 Frc consts  --      0.0082                 0.0674                 0.0343
 IR Inten    --      1.1115                 0.3058                 3.0961

                      4                      5                      6
                      A                      A                      A
 Frequencies --    215.3470               225.4719               262.3480
 Red. masses --      2.1852                 4.5284                 4.4461
 Frc consts  --      0.0597                 0.1356                 0.1803
 IR Inten    --      0.9368                 1.0904                11.1551

                      7                      8                      9
                      A                      A                      A
 Frequencies --    284.2165               338.5165               360.8003
 Red. masses --      4.4616                 5.7203                 5.2187
 Frc consts  --      0.2123                 0.3862                 0.4003
 IR Inten    --      2.5129                 9.5040                 2.8370

                     10                     11                     12
                      A                      A                      A
 Frequencies --    379.9150               390.3711               406.2860
 Red. masses --      4.8407                 1.1638                 1.1148
 Frc consts  --      0.4117                 0.1045                 0.1084
 IR Inten    --      6.3045                11.5628               190.3290

                     13                     14                     15
                      A                      A                      A
 Frequencies --    437.2698               527.4679               576.3837
 Red. masses --      6.5500                 6.7455                 5.8965
 Frc consts  --      0.7379                 1.1057                 1.1542
 IR Inten    --      4.5111                 8.6406                22.5502

                     16                     17                     18
                      A                      A                      A
 Frequencies --    580.6122               614.7548               626.6710
 Red. masses --      2.9392                 7.6711                 3.1261
 Frc consts  --      0.5838                 1.7081                 0.7233
 IR Inten    --      0.1549                 5.5903                 1.3552

                     19                     20                     21
                      A                      A                      A
 Frequencies --    643.2408               645.0323               715.8566
 Red. masses --      2.8064                 4.0026                 3.9723
 Frc consts  --      0.6842                 0.9812                 1.1993
 IR Inten    --     12.7436                17.6308                12.9051

                     22                     23                     24
                      A                      A                      A
 Frequencies --    725.9559               791.4094               806.1541
 Red. masses --      5.4331                 1.7218                 1.6626
 Frc consts  --      1.6870                 0.6354                 0.6366
 IR Inten    --      0.0178                51.0484                39.3385

                     25                     26                     27
                      A                      A                      A
 Frequencies --    977.6981               995.0253              1035.7981
 Red. masses --      2.1222                 1.0647                 3.2668
 Frc consts  --      1.1952                 0.6211                 2.0650
 IR Inten    --     39.3332                85.3675                11.0600

                     28                     29                     30
                      A                      A                      A
 Frequencies --   1042.6273              1086.5296              1102.9822
 Red. masses --      1.7961                 2.4970                 4.3397
 Frc consts  --      1.1504                 1.7368                 3.1106
 IR Inten    --      1.6441                36.0648                72.8178

                     31                     32                     33
                      A                      A                      A
 Frequencies --   1184.1238              1207.8889              1236.5483
 Red. masses --      1.2651                 1.4062                 2.0591
 Frc consts  --      1.0451                 1.2088                 1.8550
 IR Inten    --    159.7948                23.3975               178.9824

                     34                     35                     36
                      A                      A                      A
 Frequencies --   1278.4829              1322.9415              1353.8916
 Red. masses --      1.6792                 3.0897                 2.8220
 Frc consts  --      1.6171                 3.1860                 3.0478
 IR Inten    --    212.5834               114.1652               116.8950

                     37                     38                     39
                      A                      A                      A
 Frequencies --   1401.6202              1427.4935              1447.6995
 Red. masses --      1.6294                 4.2372                 1.2011
 Frc consts  --      1.8860                 5.0872                 1.4831
 IR Inten    --    116.6460                 1.1878                30.7518

                     40                     41                     42
                      A                      A                      A
 Frequencies --   1471.4289              1480.5400              1505.3931
 Red. masses --      1.0456                 3.0518                 3.6917
 Frc consts  --      1.3338                 3.9414                 4.9291
 IR Inten    --     12.9473                 6.0103               196.9454

                     43                     44                     45
                      A                      A                      A
 Frequencies --   1572.1052              1653.3681              1671.0464
 Red. masses --      2.6155                 4.1364                 8.3426
 Frc consts  --      3.8087                 6.6621                13.7256
 IR Inten    --    105.9709               173.3598               292.2907

                     46                     47                     48
                      A                      A                      A
 Frequencies --   1699.3265              2958.6660              3073.3500
 Red. masses --      4.4999                 1.0752                 1.0355
 Frc consts  --      7.6561                 5.5455                 5.7625
 IR Inten    --    718.7550               555.4381                 0.9783

                     49                     50                     51
                      A                      A                      A
 Frequencies --   3151.6624              3183.3813              3209.7082
 Red. masses --      1.0993                 1.1057                 1.0920
 Frc consts  --      6.4336                 6.6016                 6.6286
 IR Inten    --      2.9137                12.1033                 3.0414

                     52                     53                     54
                      A                      A                      A
 Frequencies --   3214.5887              3853.1207              3854.4217
 Red. masses --      1.0922                 1.0661                 1.0661
 Frc consts  --      6.6499                 9.3252                 9.3322
 IR Inten    --      3.4958                82.0966                85.1749

 - Thermochemistry -
 -------------------
 Temperature   298.150 Kelvin.  Pressure   1.00000 Atm.
 Atom     1 has atomic number  6 and mass  12.00000

 Molecular mass:   168.04226 amu.
 Principal axes and moments of inertia in atomic units:
                           1         2         3
     Eigenvalues --  1162.811702353.647183505.40949
           X            0.99941   0.03436   0.00001
           Y           -0.03436   0.99941  -0.00003
           Z           -0.00001   0.00003   1.00000
 This molecule is an asymmetric top.
 Rotational symmetry number  1.
 Warning -- assumption of classical behavior for rotation
           may cause significant error
 Rotational temperatures (Kelvin)      0.07449     0.03680     0.02471
 Rotational constants (GHZ):           1.55205     0.76678     0.51484
 Zero-point vibrational energy     398187.7 (Joules/Mol)
                                   95.16915 (Kcal/Mol)
 Warning -- explicit consideration of  17 degrees of freedom as
           vibrations may cause significant error
 Vibrational temperatures:     86.32   159.85   277.90   309.84   324.40
          (Kelvin)            377.46   408.92   487.05   519.11   546.61
                              561.66   584.55   629.13   758.91   829.29
                              835.37   884.49   901.64   925.48   928.06
                             1029.96  1044.49  1138.66  1159.87  1406.69
                             1431.62  1490.28  1500.11  1563.27  1586.94
                             1703.69  1737.88  1779.11  1839.45  1903.42
                             1947.95  2016.62  2053.84  2082.91  2117.06
                             2130.16  2165.92  2261.91  2378.82  2404.26
                             2444.95  4256.86  4421.86  4534.53  4580.17
                             4618.05  4625.07  5543.77  5545.65

 Zero-point correction=                           0.151662 (Hartree/Particle)
 Thermal correction to Energy=                    0.162319
 Thermal correction to Enthalpy=                  0.163263
 Thermal correction to Gibbs Free Energy=         0.115768
 Sum of electronic and zero-point Energies=           -610.227648
 Sum of electronic and thermal Energies=              -610.216991
 Sum of electronic and thermal Enthalpies=            -610.216047
 Sum of electronic and thermal Free Energies=         -610.263542

                     E (Thermal)             CV                S
                      KCal/Mol        Cal/Mol-Kelvin    Cal/Mol-Kelvin
 Total                  101.856             41.627             99.961
 Electronic               0.000              0.000              0.000
 Translational            0.889              2.981             41.265
 Rotational               0.889              2.981             30.640
 Vibrational            100.079             35.666             28.056
 Vibration     1          0.597              1.973              4.457
 Vibration     2          0.607              1.940              3.250
 Vibration     3          0.635              1.849              2.197
 Vibration     4          0.645              1.818              1.998
 Vibration     5          0.650              1.802              1.915
 Vibration     6          0.670              1.742              1.646
 Vibration     7          0.683              1.703              1.508
 Vibration     8          0.719              1.599              1.219
 Vibration     9          0.735              1.553              1.119
 Vibration    10          0.750              1.513              1.040
 Vibration    11          0.758              1.491              0.999
 Vibration    12          0.771              1.457              0.940
 Vibration    13          0.798              1.389              0.835
 Vibration    14          0.882              1.189              0.593
 Vibration    15          0.933              1.082              0.492
 Vibration    16          0.937              1.073              0.484
 Vibration    17          0.974              1.001              0.425

 Optimization completed.
    -- Stationary point found.
 Normal termination of Gaussian 09 at Sun Dec 15 21:01:54 2024.
