 Gaussian 09, Revision E.01,
 Gaussian 09:  ES64L-G09RevE.01 30-Nov-2015

 -----------------------------
 # opt freq b3pw91/6-31+g(d,p)
 -----------------------------

 ----------
 [No Title]
 ----------
 Symbolic Z-matrix:
 Charge =  1 Multiplicity = 1

 SCF Done:  E(RB3PW91) =  -610.733931042     A.U. after   14 cycles
 SCF Done:  E(RB3PW91) =  -610.733722574     A.U. after   12 cycles
 SCF Done:  E(RB3PW91) =  -610.734062574     A.U. after    8 cycles
 SCF Done:  E(RB3PW91) =  -610.734116405     A.U. after   10 cycles
 SCF Done:  E(RB3PW91) =  -610.734140864     A.U. after   10 cycles
 SCF Done:  E(RB3PW91) =  -610.734142731     A.U. after    9 cycles
 Optimization completed.
    -- Stationary point found.
 Normal termination of Gaussian 09 at Sun Dec 15 21:19:17 2024.

 ----------------------------------------------------------------------
 #N Geom=AllCheck Guess=TCheck SCRF=Check GenChk RB3PW91/6-31+G(d,p) Fr
 eq
 ----------------------------------------------------------------------

 Structure from the checkpoint file:  "B3PWTHAPyang.chk"
 ----------
 [No Title]
 ----------
 Charge =  1 Multiplicity = 1

                         Standard orientation:
 ---------------------------------------------------------------------
 Center     Atomic      Atomic             Coordinates (Angstroms)
 Number     Number       Type             X           Y           Z
 ---------------------------------------------------------------------
      1          6           0        1.547729   -1.264290   -0.000238
      2          6           0        2.282497   -0.075192   -0.000089
      3          6           0        1.633613    1.173747    0.000007
      4          6           0        0.258358    1.209387    0.000015
      5          6           0       -0.557439    0.023409   -0.000048
      6          6           0        0.165853   -1.224552   -0.000247
      7          8           0       -0.554132   -2.352086   -0.000436
      8          6           0       -1.980262    0.082426    0.000214
      9          6           0       -2.908361   -1.077149    0.000310
     10          8           0       -2.622034    1.215082    0.000432
     11          8           0       -0.404360    2.393427   -0.000006
     12          8           0        3.606718   -0.196863   -0.000099
     13          1           0        2.083141   -2.208409   -0.000371
     14          1           0        2.208530    2.095900   -0.000023
     15          1           0        0.019684   -3.131205   -0.000541
     16          1           0       -2.737722   -1.710022   -0.875226
     17          1           0       -2.737182   -1.710358    0.875493
     18          1           0       -3.932116   -0.703516    0.000683
     19          1           0       -2.011007    1.986820    0.000387
     20          1           0        0.185027    3.160238    0.000908
     21          1           0        4.060175    0.657367    0.000011
 ---------------------------------------------------------------------

 SCF Done:  E(RB3PW91) =  -610.734142731     A.U. after    2 cycles

 The electronic state is 1-A.
 Alpha  occ. eigenvalues --  -19.38180 -19.37159 -19.35588 -19.35324 -10.46788
 Alpha  occ. eigenvalues --  -10.44721 -10.43901 -10.43634 -10.37623 -10.35513
 Alpha  occ. eigenvalues --  -10.34269 -10.32543  -1.29122  -1.26671  -1.25872
 Alpha  occ. eigenvalues --   -1.25469  -1.03993  -0.96980  -0.93152  -0.91684
 Alpha  occ. eigenvalues --   -0.84117  -0.82370  -0.79895  -0.76988  -0.74551
 Alpha  occ. eigenvalues --   -0.72330  -0.68623  -0.66452  -0.63830  -0.62420
 Alpha  occ. eigenvalues --   -0.61643  -0.61336  -0.60387  -0.58927  -0.57799
 Alpha  occ. eigenvalues --   -0.57238  -0.56090  -0.54181  -0.53991  -0.52389
 Alpha  occ. eigenvalues --   -0.51829  -0.47881  -0.41719  -0.40577
 Alpha virt. eigenvalues --   -0.24818  -0.16732  -0.13964  -0.13801  -0.11876
 Alpha virt. eigenvalues --   -0.11438  -0.09929  -0.07533  -0.06734  -0.06724
 Alpha virt. eigenvalues --   -0.06367  -0.04703  -0.03675  -0.03592  -0.02802

 Mulliken charges:
               1
     1  C    1.286156
     2  C   -1.074934
     3  C    1.041214
     4  C   -1.258334
     5  C    2.491539
     6  C   -2.627831
     7  O   -0.484218
     8  C    0.467905
     9  C   -0.191787
    10  O   -0.358589
    11  O   -0.588821
    12  O   -0.439777
    13  H    0.184155
    14  H    0.161230
    15  H    0.417663
    16  H    0.231246
    17  H    0.231233
    18  H    0.223049
    19  H    0.464240
    20  H    0.434599
    21  H    0.390062
 Sum of Mulliken charges =   1.00000

 Dipole moment (field-independent basis, Debye):
    X=              1.6673    Y=              1.6782    Z=              0.0017  Tot=              2.3657
 Quadrupole moment (field-independent basis, Debye-Ang):
   XX=            -42.2043   YY=            -35.7908   ZZ=            -69.3119
   XY=              8.8876   XZ=             -0.0008   YZ=              0.0084

  Exact polarizability: 162.371   2.204 115.276  -0.006   0.008  54.815
 Approx polarizability: 269.159  -4.013 183.674  -0.007   0.013  81.589

                      1                      2                      3
                      A                      A                      A
 Frequencies --     57.6988                91.8376               191.2039
 Red. masses --      4.6893                 5.0948                 2.5307
 Frc consts  --      0.0092                 0.0253                 0.0545
 IR Inten    --      0.5505                 0.1881                 3.9105

                      4                      5                      6
                      A                      A                      A
 Frequencies --    208.8361               223.8766               262.6193
 Red. masses --      4.2693                 1.4863                 4.7199
 Frc consts  --      0.1097                 0.0439                 0.1918
 IR Inten    --      3.1783                 0.0343                 1.1148

                      7                      8                      9
                      A                      A                      A
 Frequencies --    279.6561               343.3918               347.6163
 Red. masses --      2.8061                 1.2339                 5.4583
 Frc consts  --      0.1293                 0.0857                 0.3886
 IR Inten    --     43.4354                93.7485                12.5788

                     10                     11                     12
                      A                      A                      A
 Frequencies --    369.9747               396.1281               425.3350
 Red. masses --      4.9541                 4.8175                 5.8076
 Frc consts  --      0.3995                 0.4454                 0.6190
 IR Inten    --      5.0346                 5.4862                 5.1557

                     13                     14                     15
                      A                      A                      A
 Frequencies --    458.5232               475.0133               523.9372
 Red. masses --      1.1290                 1.1186                 7.0254
 Frc consts  --      0.1399                 0.1487                 1.1363
 IR Inten    --     24.3961               187.4007                 3.9927

                     16                     17                     18
                      A                      A                      A
 Frequencies --    541.4572               569.7659               610.9342
 Red. masses --      3.9556                 2.7229                 7.9423
 Frc consts  --      0.6833                 0.5208                 1.7466
 IR Inten    --      8.1028                 0.3080                 0.4476

                     19                     20                     21
                      A                      A                      A
 Frequencies --    624.1370               643.2006               651.5364
 Red. masses --      3.3437                 3.4552                 2.9566
 Frc consts  --      0.7674                 0.8422                 0.7395
 IR Inten    --     11.7828                30.0336                23.5750

                     22                     23                     24
                      A                      A                      A
 Frequencies --    716.8838               725.5555               802.1203
 Red. masses --      4.2172                 5.6208                 1.6510
 Frc consts  --      1.2769                 1.7434                 0.6259
 IR Inten    --      4.5629                 1.6309                59.0287

                     25                     26                     27
                      A                      A                      A
 Frequencies --    834.6046               839.0037               987.2174
 Red. masses --      1.4187                 1.3255                 2.0618
 Frc consts  --      0.5823                 0.5498                 1.1839
 IR Inten    --    108.2781                28.4638                35.3684

                     28                     29                     30
                      A                      A                      A
 Frequencies --   1038.7306              1045.1742              1083.6907
 Red. masses --      3.2238                 1.6782                 2.3579
 Frc consts  --      2.0494                 1.0801                 1.6315
 IR Inten    --      0.8688                 0.4427                58.4139

                     31                     32                     33
                      A                      A                      A
 Frequencies --   1096.2028              1181.0124              1192.5635
 Red. masses --      3.1328                 1.2605                 1.2083
 Frc consts  --      2.2180                 1.0358                 1.0125
 IR Inten    --     82.2351                86.7286                80.6676

                     34                     35                     36
                      A                      A                      A
 Frequencies --   1224.1572              1255.3550              1297.8214
 Red. masses --      1.5551                 2.4728                 1.9453
 Frc consts  --      1.3731                 2.2960                 1.9305
 IR Inten    --    116.7689                55.2917                75.9603

                     37                     38                     39
                      A                      A                      A
 Frequencies --   1323.9507              1389.9567              1399.6793
 Red. masses --      1.9677                 1.1746                 2.7745
 Frc consts  --      2.0321                 1.3371                 3.2025
 IR Inten    --    165.8569                85.9121               219.1500

                     40                     41                     42
                      A                      A                      A
 Frequencies --   1436.0993              1453.9523              1457.7587
 Red. masses --      1.6349                 5.0396                 1.0432
 Frc consts  --      1.9866                 6.2769                 1.3061
 IR Inten    --     13.5147                39.6606                19.4280

                     43                     44                     45
                      A                      A                      A
 Frequencies --   1492.0917              1528.4616              1561.1753
 Red. masses --      2.4170                 2.8301                 4.7945
 Frc consts  --      3.1704                 3.8955                 6.8849
 IR Inten    --    390.1618               285.5053               213.9025

                     46                     47                     48
                      A                      A                      A
 Frequencies --   1586.8330              1623.0080              1700.1908
 Red. masses --      3.6216                 5.7835                 7.0731
 Frc consts  --      5.3730                 8.9760                12.0463
 IR Inten    --    206.2209               217.9712               838.4860

                     49                     50                     51
                      A                      A                      A
 Frequencies --   3078.7658              3151.9337              3198.1734
 Red. masses --      1.0368                 1.0985                 1.1059
 Frc consts  --      5.7900                 6.4300                 6.6643
 IR Inten    --     15.1360                 1.8780                 5.6339

                     52                     53                     54
                      A                      A                      A
 Frequencies --   3203.0966              3225.1530              3475.4980
 Red. masses --      1.0934                 1.0935                 1.0672
 Frc consts  --      6.6093                 6.7016                 7.5948
 IR Inten    --      0.0849                 3.2944               278.7251

                     55                     56                     57
                      A                      A                      A
 Frequencies --   3820.1273              3828.2048              3830.8290
 Red. masses --      1.0665                 1.0670                 1.0670
 Frc consts  --      9.1702                 9.2130                 9.2255
 IR Inten    --    177.8855                68.2399               292.3642

 - Thermochemistry -
 -------------------
 Temperature   298.150 Kelvin.  Pressure   1.00000 Atm.
 Atom     1 has atomic number  6 and mass  12.00000

 Molecular mass:   169.05008 amu.
 Principal axes and moments of inertia in atomic units:
                           1         2         3
     Eigenvalues --  1181.789682374.213423544.97204
           X            0.99943   0.03378   0.00007
           Y           -0.03378   0.99943  -0.00010
           Z           -0.00007   0.00010   1.00000
 This molecule is an asymmetric top.
 Rotational symmetry number  1.
 Warning -- assumption of classical behavior for rotation
           may cause significant error
 Rotational temperatures (Kelvin)      0.07329     0.03648     0.02443
 Rotational constants (GHZ):           1.52713     0.76014     0.50910
 Zero-point vibrational energy     432938.8 (Joules/Mol)
                                  103.47485 (Kcal/Mol)
 Warning -- explicit consideration of  18 degrees of freedom as
           vibrations may cause significant error
 Vibrational temperatures:     83.02   132.13   275.10   300.47   322.11
          (Kelvin)            377.85   402.36   494.06   500.14   532.31
                              569.94   611.96   659.71   683.44   753.83
                              779.04   819.77   879.00   897.99   925.42
                              937.41  1031.43  1043.91  1154.07  1200.81
                             1207.14  1420.38  1494.50  1503.77  1559.19
                             1577.19  1699.21  1715.83  1761.29  1806.17
                             1867.27  1904.87  1999.84  2013.82  2066.22
                             2091.91  2097.39  2146.78  2199.11  2246.18
                             2283.10  2335.14  2446.19  4429.65  4534.92
                             4601.45  4608.54  4640.27  5000.46  5496.30
                             5507.93  5511.70

 Zero-point correction=                           0.164898 (Hartree/Particle)
 Thermal correction to Energy=                    0.175901
 Thermal correction to Enthalpy=                  0.176845
 Thermal correction to Gibbs Free Energy=         0.128664
 Sum of electronic and zero-point Energies=           -610.569245
 Sum of electronic and thermal Energies=              -610.558242
 Sum of electronic and thermal Enthalpies=            -610.557298
 Sum of electronic and thermal Free Energies=         -610.605479

                     E (Thermal)             CV                S
                      KCal/Mol        Cal/Mol-Kelvin    Cal/Mol-Kelvin
 Total                  110.379             43.329            101.406
 Electronic               0.000              0.000              0.000
 Translational            0.889              2.981             41.283
 Rotational               0.889              2.981             30.676
 Vibrational            108.602             37.367             29.447
 Vibration     1          0.596              1.974              4.534
 Vibration     2          0.602              1.955              3.621
 Vibration     3          0.634              1.852              2.216
 Vibration     4          0.642              1.827              2.054
 Vibration     5          0.649              1.805              1.928
 Vibration     6          0.670              1.741              1.644
 Vibration     7          0.680              1.711              1.536
 Vibration     8          0.722              1.589              1.196
 Vibration     9          0.725              1.580              1.177
 Vibration    10          0.742              1.534              1.080
 Vibration    11          0.763              1.478              0.977
 Vibration    12          0.787              1.415              0.874
 Vibration    13          0.817              1.342              0.770
 Vibration    14          0.832              1.305              0.724
 Vibration    15          0.879              1.197              0.601
 Vibration    16          0.897              1.158              0.562
 Vibration    17          0.926              1.097              0.505
 Vibration    18          0.970              1.009              0.431

 Optimization completed.
    -- Stationary point found.
 Normal termination of Gaussian 09 at Sun Dec 15 21:21:26 2024.
