 Gaussian 09, Revision E.01,
 Gaussian 09:  ES64L-G09RevE.01 30-Nov-2015

 --------------------------------
 # opt freq cam-b3lyp/6-31+g(d,p)
 --------------------------------

 ----------
 [No Title]
 ----------
 Symbolic Z-matrix:
 Charge =  0 Multiplicity = 1

 SCF Done:  E(RCAM-B3LYP) =  -610.345580544     A.U. after   15 cycles
 SCF Done:  E(RCAM-B3LYP) =  -610.346006515     A.U. after   13 cycles
 SCF Done:  E(RCAM-B3LYP) =  -610.345883049     A.U. after   13 cycles
 SCF Done:  E(RCAM-B3LYP) =  -610.346053884     A.U. after    9 cycles
 SCF Done:  E(RCAM-B3LYP) =  -610.346073820     A.U. after   12 cycles
 SCF Done:  E(RCAM-B3LYP) =  -610.346080127     A.U. after   11 cycles
 SCF Done:  E(RCAM-B3LYP) =  -610.346078609     A.U. after   11 cycles
 SCF Done:  E(RCAM-B3LYP) =  -610.346080851     A.U. after   10 cycles
 Optimization completed.
    -- Stationary point found.
 Normal termination of Gaussian 09 at Thu Jun 20 15:18:56 2024.

 ----------------------------------------------------------------------
 #N Geom=AllCheck Guess=TCheck SCRF=Check GenChk RCAM-B3LYP/6-31+G(d,p)
  Freq
 ----------------------------------------------------------------------

 Structure from the checkpoint file:  "camb3lypTHAPgd3.chk"
 ----------
 [No Title]
 ----------
 Charge =  0 Multiplicity = 1

                         Standard orientation:
 ---------------------------------------------------------------------
 Center     Atomic      Atomic             Coordinates (Angstroms)
 Number     Number       Type             X           Y           Z
 ---------------------------------------------------------------------
      1          6           0       -1.522201    1.248255   -0.000088
      2          6           0       -2.254237    0.058464   -0.000094
      3          6           0       -1.623013   -1.172914   -0.000058
      4          6           0       -0.228558   -1.225385   -0.000020
      5          6           0        0.564194   -0.037857    0.000002
      6          6           0       -0.141032    1.191757   -0.000040
      7          8           0        0.579103    2.345073   -0.000052
      8          6           0        2.024034   -0.167597    0.000066
      9          6           0        2.951188    1.016853    0.000254
     10          8           0        2.541332   -1.298116    0.000102
     11          8           0        0.331640   -2.430455    0.000011
     12          8           0       -3.603415    0.181221   -0.000132
     13          1           0       -2.049430    2.196243   -0.000134
     14          1           0       -2.176494   -2.105607   -0.000061
     15          1           0       -0.020874    3.100762   -0.000071
     16          1           0        2.779482    1.646992    0.875351
     17          1           0        3.972520    0.637107    0.000440
     18          1           0        2.779814    1.646964   -0.874932
     19          1           0        1.322774   -2.283987    0.000035
     20          1           0       -4.019322   -0.689708   -0.000190
 ---------------------------------------------------------------------

 SCF Done:  E(RCAM-B3LYP) =  -610.346080851     A.U. after    1 cycles

 The electronic state is 1-A.
 Alpha  occ. eigenvalues --  -19.28752 -19.28428 -19.24851 -19.22993 -10.37195
 Alpha  occ. eigenvalues --  -10.36328 -10.35868 -10.35488 -10.28227 -10.27327
 Alpha  occ. eigenvalues --  -10.26794 -10.26223  -1.17940  -1.17392  -1.16203
 Alpha  occ. eigenvalues --   -1.12536  -0.95169  -0.86841  -0.84130  -0.81991
 Alpha  occ. eigenvalues --   -0.74107  -0.72174  -0.67831  -0.65810  -0.60153
 Alpha  occ. eigenvalues --   -0.59517  -0.58192  -0.55664  -0.53946  -0.51995
 Alpha  occ. eigenvalues --   -0.50893  -0.50770  -0.49030  -0.48653  -0.48617
 Alpha  occ. eigenvalues --   -0.47575  -0.45445  -0.43804  -0.43649  -0.43030
 Alpha  occ. eigenvalues --   -0.37318  -0.33387  -0.30094  -0.28884
 Alpha virt. eigenvalues --   -0.01403   0.01454   0.02212   0.03812   0.04461
 Alpha virt. eigenvalues --    0.05961   0.06435   0.06957   0.07339   0.07467
 Alpha virt. eigenvalues --    0.08716   0.09028   0.10451   0.10825   0.11519

 Mulliken charges:
               1
     1  C    0.798898
     2  C   -0.530433
     3  C    0.789254
     4  C   -1.031995
     5  C    1.932382
     6  C   -1.941794
     7  O   -0.567350
     8  C    0.681577
     9  C   -0.513433
    10  O   -0.509552
    11  O   -0.568374
    12  O   -0.539166
    13  H    0.124560
    14  H    0.130787
    15  H    0.389503
    16  H    0.183388
    17  H    0.175293
    18  H    0.183386
    19  H    0.443561
    20  H    0.369508
 Sum of Mulliken charges =  -0.00000

 Dipole moment (field-independent basis, Debye):
    X=             -2.2623    Y=              3.1400    Z=             -0.0001  Tot=              3.8701
 Quadrupole moment (field-independent basis, Debye-Ang):
   XX=            -67.5363   YY=            -66.4160   ZZ=            -72.0006
   XY=              8.9577   XZ=              0.0007   YZ=              0.0004

  Exact polarizability: 148.594  -2.377 119.669   0.004  -0.000  60.397
 Approx polarizability: 165.375  -9.364 152.118   0.003  -0.001  77.207

                      1                      2                      3
                      A                      A                      A
 Frequencies --     60.6399               109.4146               201.2193
 Red. masses --      3.8048                 9.9889                 2.3103
 Frc consts  --      0.0082                 0.0705                 0.0551
 IR Inten    --      1.1839                 0.2721                 3.6854

                      4                      5                      6
                      A                      A                      A
 Frequencies --    223.6342               231.6721               267.4924
 Red. masses --      1.6480                 3.5339                 4.5614
 Frc consts  --      0.0486                 0.1118                 0.1923
 IR Inten    --      0.0180                 1.3901                11.7373

                      7                      8                      9
                      A                      A                      A
 Frequencies --    290.2481               342.0982               364.3921
 Red. masses --      4.4062                 5.7565                 5.1549
 Frc consts  --      0.2187                 0.3969                 0.4033
 IR Inten    --      2.1028                 9.2542                 3.3937

                     10                     11                     12
                      A                      A                      A
 Frequencies --    383.6732               392.3122               404.4247
 Red. masses --      4.8899                 1.1622                 1.1193
 Frc consts  --      0.4241                 0.1054                 0.1079
 IR Inten    --      6.5407                 1.1677               211.0706

                     13                     14                     15
                      A                      A                      A
 Frequencies --    438.1229               536.2977               582.6743
 Red. masses --      6.5117                 6.7262                 5.8102
 Frc consts  --      0.7364                 1.1398                 1.1622
 IR Inten    --      4.0062                 9.3192                23.5607

                     16                     17                     18
                      A                      A                      A
 Frequencies --    589.9084               620.3943               638.5812
 Red. masses --      2.9081                 7.4809                 3.1529
 Frc consts  --      0.5963                 1.6964                 0.7575
 IR Inten    --      0.3039                 5.0015                 1.2519

                     19                     20                     21
                      A                      A                      A
 Frequencies --    652.5115               654.7463               722.7359
 Red. masses --      4.0420                 2.6759                 3.9584
 Frc consts  --      1.0140                 0.6759                 1.2182
 IR Inten    --     17.6402                13.6503                14.5010

                     22                     23                     24
                      A                      A                      A
 Frequencies --    745.6907               817.1962               830.3995
 Red. masses --      4.8532                 1.7697                 1.7231
 Frc consts  --      1.5900                 0.6963                 0.7001
 IR Inten    --      0.3024                42.4380                53.6708

                     25                     26                     27
                      A                      A                      A
 Frequencies --    957.9572               989.5891              1047.2721
 Red. masses --      1.0629                 2.1534                 3.2389
 Frc consts  --      0.5747                 1.2425                 2.0930
 IR Inten    --     88.2886                38.1978                10.4435

                     28                     29                     30
                      A                      A                      A
 Frequencies --   1060.1991              1100.5822              1114.4360
 Red. masses --      1.8146                 2.4609                 4.2350
 Frc consts  --      1.2017                 1.7563                 3.0990
 IR Inten    --      3.6647                41.4680                75.1651

                     31                     32                     33
                      A                      A                      A
 Frequencies --   1187.1511              1213.4161              1240.8832
 Red. masses --      1.2842                 1.4050                 2.1069
 Frc consts  --      1.0664                 1.2188                 1.9114
 IR Inten    --    140.5710                22.6783               200.6823

                     34                     35                     36
                      A                      A                      A
 Frequencies --   1285.6791              1325.4884              1359.0010
 Red. masses --      1.6512                 3.2242                 3.1953
 Frc consts  --      1.6081                 3.3376                 3.4770
 IR Inten    --    235.5416               121.9507               150.6563

                     37                     38                     39
                      A                      A                      A
 Frequencies --   1415.6601              1424.8694              1462.6068
 Red. masses --      2.2232                 1.8814                 1.2325
 Frc consts  --      2.6251                 2.2505                 1.5534
 IR Inten    --     54.8833                46.4050                38.0708

                     40                     41                     42
                      A                      A                      A
 Frequencies --   1484.7694              1485.5675              1519.1333
 Red. masses --      2.6982                 1.0460                 3.8810
 Frc consts  --      3.5047                 1.3601                 5.2769
 IR Inten    --      7.5467                12.9747               215.1909

                     43                     44                     45
                      A                      A                      A
 Frequencies --   1584.3454              1673.2291              1702.8237
 Red. masses --      2.7359                 4.5685                 8.9817
 Frc consts  --      4.0463                 7.5360                15.3443
 IR Inten    --     81.7803               152.3754               324.8778

                     46                     47                     48
                      A                      A                      A
 Frequencies --   1719.2449              3092.3187              3123.5863
 Red. masses --      5.2623                 1.0354                 1.0720
 Frc consts  --      9.1643                 5.8337                 6.1625
 IR Inten    --    776.6211                 2.7473               527.4396

                     49                     50                     51
                      A                      A                      A
 Frequencies --   3167.5838              3194.7428              3223.2829
 Red. masses --      1.1001                 1.1068                 1.0927
 Frc consts  --      6.5032                 6.6559                 6.6886
 IR Inten    --      2.6497                13.6609                 1.9762

                     52                     53                     54
                      A                      A                      A
 Frequencies --   3227.4804              3864.6056              3865.2347
 Red. masses --      1.0928                 1.0662                 1.0662
 Frc consts  --      6.7068                 9.3820                 9.3853
 IR Inten    --      2.9493               118.1699                70.4821

 - Thermochemistry -
 -------------------
 Temperature   298.150 Kelvin.  Pressure   1.00000 Atm.
 Atom     1 has atomic number  6 and mass  12.00000

 Molecular mass:   168.04226 amu.
 Principal axes and moments of inertia in atomic units:
                           1         2         3
     Eigenvalues --  1159.453722347.236613495.66481
           X            0.99941   0.03433  -0.00005
           Y           -0.03433   0.99941   0.00000
           Z            0.00005  -0.00000   1.00000
 This molecule is an asymmetric top.
 Rotational symmetry number  1.
 Warning -- assumption of classical behavior for rotation
           may cause significant error
 Rotational temperatures (Kelvin)      0.07470     0.03690     0.02478
 Rotational constants (GHZ):           1.55654     0.76888     0.51628
 Zero-point vibrational energy     402024.3 (Joules/Mol)
                                   96.08612 (Kcal/Mol)
 Warning -- explicit consideration of  17 degrees of freedom as
           vibrations may cause significant error
 Vibrational temperatures:     87.25   157.42   289.51   321.76   333.32
          (Kelvin)            384.86   417.60   492.20   524.28   552.02
                              564.45   581.88   630.36   771.61   838.34
                              848.75   892.61   918.77   938.82   942.03
                             1039.85  1072.88  1175.76  1194.76  1378.29
                             1423.80  1506.79  1525.39  1583.49  1603.42
                             1708.04  1745.83  1785.35  1849.80  1907.08
                             1955.30  2036.82  2050.07  2104.36  2136.25
                             2137.40  2185.69  2279.52  2407.40  2449.98
                             2473.61  4449.15  4494.14  4557.44  4596.52
                             4637.58  4643.62  5560.30  5561.20

 Zero-point correction=                           0.153123 (Hartree/Particle)
 Thermal correction to Energy=                    0.163658
 Thermal correction to Enthalpy=                  0.164602
 Thermal correction to Gibbs Free Energy=         0.117343
 Sum of electronic and zero-point Energies=           -610.192958
 Sum of electronic and thermal Energies=              -610.182423
 Sum of electronic and thermal Enthalpies=            -610.181479
 Sum of electronic and thermal Free Energies=         -610.228738

                     E (Thermal)             CV                S
                      KCal/Mol        Cal/Mol-Kelvin    Cal/Mol-Kelvin
 Total                  102.697             41.227             99.465
 Electronic               0.000              0.000              0.000
 Translational            0.889              2.981             41.265
 Rotational               0.889              2.981             30.632
 Vibrational            100.919             35.265             27.568
 Vibration     1          0.597              1.973              4.436
 Vibration     2          0.606              1.942              3.279
 Vibration     3          0.638              1.838              2.122
 Vibration     4          0.649              1.805              1.929
 Vibration     5          0.653              1.793              1.866
 Vibration     6          0.673              1.733              1.612
 Vibration     7          0.686              1.692              1.473
 Vibration     8          0.721              1.591              1.202
 Vibration     9          0.738              1.546              1.103
 Vibration    10          0.753              1.505              1.025
 Vibration    11          0.760              1.487              0.991
 Vibration    12          0.770              1.461              0.947
 Vibration    13          0.798              1.387              0.833
 Vibration    14          0.891              1.170              0.573
 Vibration    15          0.939              1.069              0.480
 Vibration    16          0.947              1.053              0.467
 Vibration    17          0.980              0.989              0.416

 Optimization completed.
    -- Stationary point found.
 Normal termination of Gaussian 09 at Thu Jun 20 15:22:10 2024.
