 Gaussian 09, Revision E.01,
 Gaussian 09:  ES64L-G09RevE.01 30-Nov-2015

 --------------------------------
 # opt freq cam-b3lyp/6-31+g(d,p)
 --------------------------------

 ----------
 [No Title]
 ----------
 Symbolic Z-matrix:
 Charge =  1 Multiplicity = 1

 SCF Done:  E(RCAM-B3LYP) =  -610.695748391     A.U. after   15 cycles
 SCF Done:  E(RCAM-B3LYP) =  -610.696161781     A.U. after   13 cycles
 SCF Done:  E(RCAM-B3LYP) =  -610.696082490     A.U. after   12 cycles
 SCF Done:  E(RCAM-B3LYP) =  -610.696220559     A.U. after    8 cycles
 SCF Done:  E(RCAM-B3LYP) =  -610.696238421     A.U. after   11 cycles
 SCF Done:  E(RCAM-B3LYP) =  -610.696248411     A.U. after   10 cycles
 SCF Done:  E(RCAM-B3LYP) =  -610.696248893     A.U. after    9 cycles
 Optimization completed.
    -- Stationary point found.
 Normal termination of Gaussian 09 at Thu Jun 20 16:41:41 2024.

 ----------------------------------------------------------------------
 #N Geom=AllCheck Guess=TCheck SCRF=Check GenChk RCAM-B3LYP/6-31+G(d,p)
  Freq
 ----------------------------------------------------------------------

 Structure from the checkpoint file:  "b3lypTHAPyang.chk"
 ----------
 [No Title]
 ----------
 Charge =  1 Multiplicity = 1

                         Standard orientation:
 ---------------------------------------------------------------------
 Center     Atomic      Atomic             Coordinates (Angstroms)
 Number     Number       Type             X           Y           Z
 ---------------------------------------------------------------------
      1          6           0        1.542566   -1.264458   -0.000012
      2          6           0        2.275241   -0.078207   -0.000126
      3          6           0        1.631191    1.170028   -0.000183
      4          6           0        0.260063    1.206402   -0.000125
      5          6           0       -0.554973    0.024342    0.000036
      6          6           0        0.164383   -1.221200    0.000062
      7          8           0       -0.556862   -2.347047    0.000107
      8          6           0       -1.975471    0.084214    0.000162
      9          6           0       -2.904951   -1.074725    0.000466
     10          8           0       -2.612637    1.214482   -0.000010
     11          8           0       -0.399849    2.391601   -0.000189
     12          8           0        3.598342   -0.199158   -0.000174
     13          1           0        2.076431   -2.208195   -0.000012
     14          1           0        2.207706    2.089791   -0.000268
     15          1           0        0.009127   -3.132365    0.000171
     16          1           0       -2.732972   -1.705991   -0.874126
     17          1           0       -2.732427   -1.706048    0.874895
     18          1           0       -3.926452   -0.698131    0.000764
     19          1           0       -2.008156    1.991020   -0.000222
     20          1           0        0.186572    3.161421   -0.000463
     21          1           0        4.059927    0.651092   -0.000290
 ---------------------------------------------------------------------

 SCF Done:  E(RCAM-B3LYP) =  -610.696248893     A.U. after    1 cycles

 The electronic state is 1-A.
 Alpha  occ. eigenvalues --  -19.46402 -19.45616 -19.43767 -19.43394 -10.55999
 Alpha  occ. eigenvalues --  -10.53578 -10.52765 -10.52499 -10.45874 -10.43849
 Alpha  occ. eigenvalues --  -10.42573 -10.41145  -1.37078  -1.34413  -1.33508
 Alpha  occ. eigenvalues --   -1.33005  -1.12047  -1.04863  -1.00856  -0.99421
 Alpha  occ. eigenvalues --   -0.91369  -0.89655  -0.87247  -0.83860  -0.81576
 Alpha  occ. eigenvalues --   -0.79349  -0.75389  -0.73208  -0.71150  -0.69040
 Alpha  occ. eigenvalues --   -0.68426  -0.67986  -0.67332  -0.65842  -0.64395
 Alpha  occ. eigenvalues --   -0.63940  -0.62558  -0.60553  -0.60421  -0.58705
 Alpha  occ. eigenvalues --   -0.58158  -0.54124  -0.46708  -0.45812
 Alpha virt. eigenvalues --   -0.20278  -0.11791  -0.11476  -0.09456  -0.09218
 Alpha virt. eigenvalues --   -0.08680  -0.07609  -0.05396  -0.05197  -0.04521
 Alpha virt. eigenvalues --   -0.03794  -0.02899  -0.01893  -0.01130  -0.01127

 Mulliken charges:
               1
     1  C    0.917809
     2  C   -0.704398
     3  C    0.612787
     4  C   -0.834533
     5  C    1.971347
     6  C   -2.009285
     7  O   -0.540569
     8  C    0.657603
     9  C   -0.238288
    10  O   -0.392940
    11  O   -0.628399
    12  O   -0.481219
    13  H    0.167675
    14  H    0.144270
    15  H    0.419155
    16  H    0.220045
    17  H    0.220030
    18  H    0.207653
    19  H    0.466014
    20  H    0.434477
    21  H    0.390767
 Sum of Mulliken charges =   1.00000

 Dipole moment (field-independent basis, Debye):
    X=              1.5585    Y=              1.7314    Z=             -0.0006  Tot=              2.3295
 Quadrupole moment (field-independent basis, Debye-Ang):
   XX=            -43.6825   YY=            -36.8955   ZZ=            -69.8118
   XY=              8.9928   XZ=             -0.0028   YZ=             -0.0050

  Exact polarizability: 158.723   1.733 113.377  -0.008  -0.004  55.259
 Approx polarizability: 184.323  -2.110 139.293  -0.006  -0.006  71.418

                      1                      2                      3
                      A                      A                      A
 Frequencies --     61.6158                95.9274               195.5081
 Red. masses --      4.5466                 5.2282                 2.9400
 Frc consts  --      0.0102                 0.0283                 0.0662
 IR Inten    --      0.3906                 0.0710                 3.8326

                      4                      5                      6
                      A                      A                      A
 Frequencies --    215.3987               230.8786               269.0058
 Red. masses --      3.8997                 1.4096                 4.7310
 Frc consts  --      0.1066                 0.0443                 0.2017
 IR Inten    --      2.7393                 0.1373                 1.4561

                      7                      8                      9
                      A                      A                      A
 Frequencies --    284.8969               351.6420               359.3355
 Red. masses --      3.1342                 5.4778                 1.1882
 Frc consts  --      0.1499                 0.3991                 0.0904
 IR Inten    --     33.6242                13.2687               104.4945

                     10                     11                     12
                      A                      A                      A
 Frequencies --    375.4130               402.3728               430.0683
 Red. masses --      4.8812                 4.9452                 5.7369
 Frc consts  --      0.4053                 0.4717                 0.6252
 IR Inten    --      5.5414                 5.9334                 5.8387

                     13                     14                     15
                      A                      A                      A
 Frequencies --    459.6658               479.2599               531.6064
 Red. masses --      1.1240                 1.1188                 6.9154
 Frc consts  --      0.1399                 0.1514                 1.1515
 IR Inten    --     48.4706               175.8429                 4.5850

                     16                     17                     18
                      A                      A                      A
 Frequencies --    549.2051               580.9732               617.4044
 Red. masses --      3.9707                 2.6609                 7.8912
 Frc consts  --      0.7056                 0.5292                 1.7723
 IR Inten    --      9.5291                 0.3239                 0.3585

                     19                     20                     21
                      A                      A                      A
 Frequencies --    636.4756               650.1907               663.2291
 Red. masses --      3.3331                 3.4383                 2.8227
 Frc consts  --      0.7955                 0.8564                 0.7315
 IR Inten    --     10.2335                30.4191                23.3842

                     22                     23                     24
                      A                      A                      A
 Frequencies --    725.3156               744.7322               825.4270
 Red. masses --      4.2081                 4.9273                 1.7036
 Frc consts  --      1.3043                 1.6101                 0.6839
 IR Inten    --      4.6489                 3.4241                47.7159

                     25                     26                     27
                      A                      A                      A
 Frequencies --    851.9057               856.9054               995.5182
 Red. masses --      1.2826                 1.5359                 2.1081
 Frc consts  --      0.5484                 0.6645                 1.2309
 IR Inten    --    156.1522                 3.1040                37.8536

                     28                     29                     30
                      A                      A                      A
 Frequencies --   1048.2581              1062.6803              1096.4269
 Red. masses --      3.1900                 1.6948                 2.3286
 Frc consts  --      2.0652                 1.1276                 1.6493
 IR Inten    --      2.7568                 0.9085                72.7684

                     31                     32                     33
                      A                      A                      A
 Frequencies --   1108.0456              1184.4388              1196.3597
 Red. masses --      2.9506                 1.2567                 1.2139
 Frc consts  --      2.1344                 1.0388                 1.0237
 IR Inten    --     86.1645               116.8993                45.3019

                     34                     35                     36
                      A                      A                      A
 Frequencies --   1226.0743              1262.6137              1308.1057
 Red. masses --      1.5483                 2.5439                 1.9059
 Frc consts  --      1.3713                 2.3894                 1.9215
 IR Inten    --    111.0278                58.5637                89.5526

                     37                     38                     39
                      A                      A                      A
 Frequencies --   1329.4886              1404.5393              1409.1498
 Red. masses --      2.0298                 3.1960                 1.1785
 Frc consts  --      2.1138                 3.7147                 1.3788
 IR Inten    --    172.1273               346.9548                38.9125

                     40                     41                     42
                      A                      A                      A
 Frequencies --   1440.7850              1454.9511              1472.9270
 Red. masses --      2.1674                 2.5908                 1.0436
 Frc consts  --      2.6508                 3.2313                 1.3340
 IR Inten    --     40.7387                61.4095                19.3228

                     43                     44                     45
                      A                      A                      A
 Frequencies --   1501.2144              1541.6021              1578.2057
 Red. masses --      2.2378                 2.8592                 4.9178
 Frc consts  --      2.9713                 4.0034                 7.2168
 IR Inten    --    421.9477               337.9848               242.9975

                     46                     47                     48
                      A                      A                      A
 Frequencies --   1600.4682              1644.3660              1717.2950
 Red. masses --      3.7107                 6.0511                 7.1129
 Frc consts  --      5.6001                 9.6401                12.3591
 IR Inten    --    203.9527               236.8410               923.0329

                     49                     50                     51
                      A                      A                      A
 Frequencies --   3097.2850              3168.5967              3209.6668
 Red. masses --      1.0364                 1.0994                 1.1072
 Frc consts  --      5.8581                 6.5034                 6.7203
 IR Inten    --     14.0084                 2.0500                 5.1237

                     52                     53                     54
                      A                      A                      A
 Frequencies --   3215.7052              3237.2147              3494.7103
 Red. masses --      1.0940                 1.0942                 1.0671
 Frc consts  --      6.6650                 6.7557                 7.6782
 IR Inten    --      0.3098                 4.2449               311.6270

                     55                     56                     57
                      A                      A                      A
 Frequencies --   3828.3583              3834.3700              3838.2040
 Red. masses --      1.0666                 1.0671                 1.0670
 Frc consts  --      9.2106                 9.2437                 9.2614
 IR Inten    --    201.0931                97.3627               284.7682

 - Thermochemistry -
 -------------------
 Temperature   298.150 Kelvin.  Pressure   1.00000 Atm.
 Atom     1 has atomic number  6 and mass  12.00000

 Molecular mass:   169.05008 amu.
 Principal axes and moments of inertia in atomic units:
                           1         2         3
     Eigenvalues --  1178.554362363.197693530.74241
           X            0.99943   0.03384   0.00007
           Y           -0.03384   0.99943   0.00008
           Z           -0.00006  -0.00009   1.00000
 This molecule is an asymmetric top.
 Rotational symmetry number  1.
 Warning -- assumption of classical behavior for rotation
           may cause significant error
 Rotational temperatures (Kelvin)      0.07349     0.03665     0.02453
 Rotational constants (GHZ):           1.53132     0.76369     0.51115
 Zero-point vibrational energy     436349.8 (Joules/Mol)
                                  104.29010 (Kcal/Mol)
 Warning -- explicit consideration of  18 degrees of freedom as
           vibrations may cause significant error
 Vibrational temperatures:     88.65   138.02   281.29   309.91   332.18
          (Kelvin)            387.04   409.90   505.93   517.00   540.13
                              578.92   618.77   661.36   689.55   764.86
                              790.18   835.89   888.31   915.75   935.48
                              954.24  1043.57  1071.50  1187.60  1225.70
                             1232.89  1432.33  1508.21  1528.96  1577.51
                             1594.23  1704.14  1721.29  1764.05  1816.62
                             1882.07  1912.84  2020.82  2027.45  2072.97
                             2093.35  2119.21  2159.91  2218.02  2270.68
                             2302.71  2365.87  2470.80  4456.30  4558.90
                             4617.99  4626.68  4657.62  5028.10  5508.15
                             5516.80  5522.31

 Zero-point correction=                           0.166197 (Hartree/Particle)
 Thermal correction to Energy=                    0.177028
 Thermal correction to Enthalpy=                  0.177972
 Thermal correction to Gibbs Free Energy=         0.130184
 Sum of electronic and zero-point Energies=           -610.530052
 Sum of electronic and thermal Energies=              -610.519221
 Sum of electronic and thermal Enthalpies=            -610.518277
 Sum of electronic and thermal Free Energies=         -610.566065

                     E (Thermal)             CV                S
                      KCal/Mol        Cal/Mol-Kelvin    Cal/Mol-Kelvin
 Total                  111.086             42.806            100.578
 Electronic               0.000              0.000              0.000
 Translational            0.889              2.981             41.283
 Rotational               0.889              2.981             30.665
 Vibrational            109.309             36.844             28.630
 Vibration     1          0.597              1.973              4.405
 Vibration     2          0.603              1.952              3.535
 Vibration     3          0.636              1.846              2.175
 Vibration     4          0.645              1.818              1.997
 Vibration     5          0.653              1.794              1.872
 Vibration     6          0.673              1.730              1.603
 Vibration     7          0.683              1.702              1.504
 Vibration     8          0.728              1.572              1.159
 Vibration     9          0.734              1.556              1.125
 Vibration    10          0.746              1.522              1.058
 Vibration    11          0.768              1.465              0.954
 Vibration    12          0.791              1.405              0.858
 Vibration    13          0.818              1.340              0.767
 Vibration    14          0.836              1.296              0.712
 Vibration    15          0.887              1.180              0.584
 Vibration    16          0.904              1.141              0.546
 Vibration    17          0.938              1.072              0.484
 Vibration    18          0.977              0.995              0.421

 Optimization completed.
    -- Stationary point found.
 Normal termination of Gaussian 09 at Thu Jun 20 16:44:59 2024.
