 Gaussian 09, Revision E.01,
 Gaussian 09:  ES64L-G09RevE.01 30-Nov-2015

 ----------------------------
 # opt freq m062x/6-31+g(d,p)
 ----------------------------

 ----------
 [No Title]
 ----------
 Symbolic Z-matrix:
 Charge =  1 Multiplicity = 1

 SCF Done:  E(RM062X) =  -610.713114249     A.U. after   15 cycles
 SCF Done:  E(RM062X) =  -610.713307016     A.U. after   12 cycles
 SCF Done:  E(RM062X) =  -610.713290220     A.U. after   12 cycles
 SCF Done:  E(RM062X) =  -610.713479383     A.U. after    8 cycles
 SCF Done:  E(RM062X) =  -610.713521295     A.U. after   11 cycles
 SCF Done:  E(RM062X) =  -610.713521698     A.U. after   11 cycles
 SCF Done:  E(RM062X) =  -610.713523047     A.U. after    9 cycles
 Optimization completed.
    -- Stationary point found.
 Normal termination of Gaussian 09 at Sun Jun 16 17:14:37 2024.

 ----------------------------------------------------------------------
 #N Geom=AllCheck Guess=TCheck SCRF=Check GenChk RM062X/6-31+G(d,p) Fre
 q
 ----------------------------------------------------------------------

 Structure from the checkpoint file:  "m062xTHAPyang.chk"
 ----------
 [No Title]
 ----------
 Charge =  1 Multiplicity = 1

                         Standard orientation:
 ---------------------------------------------------------------------
 Center     Atomic      Atomic             Coordinates (Angstroms)
 Number     Number       Type             X           Y           Z
 ---------------------------------------------------------------------
      1          6           0        1.540326   -1.269451   -0.000184
      2          6           0        2.277046   -0.082657    0.000018
      3          6           0        1.637824    1.170155    0.000017
      4          6           0        0.264367    1.212078   -0.000104
      5          6           0       -0.553018    0.030205   -0.000189
      6          6           0        0.160519   -1.220195   -0.000321
      7          8           0       -0.567061   -2.340794   -0.000578
      8          6           0       -1.975650    0.088197    0.000203
      9          6           0       -2.900367   -1.078664    0.000540
     10          8           0       -2.621723    1.211453    0.000353
     11          8           0       -0.391265    2.397017   -0.000264
     12          8           0        3.598076   -0.208385    0.000123
     13          1           0        2.073129   -2.214183   -0.000268
     14          1           0        2.218231    2.087772   -0.000079
     15          1           0       -0.004499   -3.128117   -0.000590
     16          1           0       -2.720533   -1.706325   -0.875694
     17          1           0       -2.719837   -1.706417    0.876562
     18          1           0       -3.922692   -0.704909    0.000964
     19          1           0       -2.035028    1.996950    0.000143
     20          1           0        0.201576    3.161426    0.001725
     21          1           0        4.059151    0.641464    0.000285
 ---------------------------------------------------------------------

 SCF Done:  E(RM062X) =  -610.713523047     A.U. after    2 cycles

 The electronic state is 1-A.
 Alpha  occ. eigenvalues --  -19.87819 -19.87478 -19.85358 -19.84943 -10.84891
 Alpha  occ. eigenvalues --  -10.82256 -10.81478 -10.81189 -10.74582 -10.72534
 Alpha  occ. eigenvalues --  -10.71286 -10.69812  -1.41094  -1.38401  -1.37432
 Alpha  occ. eigenvalues --   -1.36954  -1.13828  -1.06458  -1.02244  -1.00724
 Alpha  occ. eigenvalues --   -0.92255  -0.90493  -0.88250  -0.84393  -0.82015
 Alpha  occ. eigenvalues --   -0.79835  -0.75657  -0.73372  -0.71682  -0.69257
 Alpha  occ. eigenvalues --   -0.69116  -0.68478  -0.67964  -0.66668  -0.64855
 Alpha  occ. eigenvalues --   -0.64742  -0.62540  -0.60588  -0.60551  -0.58822
 Alpha  occ. eigenvalues --   -0.58289  -0.54172  -0.46358  -0.45427
 Alpha virt. eigenvalues --   -0.21320  -0.12852  -0.12835  -0.10835  -0.10641
 Alpha virt. eigenvalues --   -0.09710  -0.09193  -0.07282  -0.07065  -0.06408
 Alpha virt. eigenvalues --   -0.05376  -0.04725  -0.03848  -0.03303  -0.02759

 Mulliken charges:
               1
     1  C    0.926727
     2  C   -0.736107
     3  C    0.620317
     4  C   -0.916387
     5  C    1.890684
     6  C   -1.843551
     7  O   -0.536078
     8  C    0.478314
     9  C   -0.204208
    10  O   -0.393948
    11  O   -0.622958
    12  O   -0.470079
    13  H    0.193082
    14  H    0.168264
    15  H    0.431612
    16  H    0.231240
    17  H    0.231209
    18  H    0.222614
    19  H    0.481011
    20  H    0.447221
    21  H    0.401023
 Sum of Mulliken charges =   1.00000

 Dipole moment (field-independent basis, Debye):
    X=              1.4882    Y=              1.7268    Z=              0.0038  Tot=              2.2797
 Quadrupole moment (field-independent basis, Debye-Ang):
   XX=            -42.7003   YY=            -36.3214   ZZ=            -69.9965
   XY=              8.8187   XZ=              0.0001   YZ=              0.0142

  Exact polarizability: 158.565   1.744 112.765  -0.002   0.007  54.773
 Approx polarizability: 191.366  -2.370 142.388   0.003   0.009  72.427

                      1                      2                      3
                      A                      A                      A
 Frequencies --     59.2578                85.1973               198.0992
 Red. masses --      4.5588                 5.3618                 5.9825
 Frc consts  --      0.0094                 0.0229                 0.1383
 IR Inten    --      0.5750                 0.3330                 2.9687

                      4                      5                      6
                      A                      A                      A
 Frequencies --    213.9395               259.7134               269.5227
 Red. masses --      4.6753                 1.8841                 4.9717
 Frc consts  --      0.1261                 0.0749                 0.2128
 IR Inten    --      3.5548                80.8460                 0.9098

                      7                      8                      9
                      A                      A                      A
 Frequencies --    288.7178               316.1769               350.7046
 Red. masses --      1.0635                 1.5666                 5.2691
 Frc consts  --      0.0522                 0.0923                 0.3818
 IR Inten    --      8.3716                49.8620                14.2817

                     10                     11                     12
                      A                      A                      A
 Frequencies --    377.1880               394.9829               429.1065
 Red. masses --      5.6227                 4.7615                 5.3763
 Frc consts  --      0.4713                 0.4377                 0.5833
 IR Inten    --      6.5642                 4.4583                 5.5022

                     13                     14                     15
                      A                      A                      A
 Frequencies --    431.9159               459.0907               526.3568
 Red. masses --      1.1478                 1.1186                 7.4098
 Frc consts  --      0.1262                 0.1389                 1.2095
 IR Inten    --     58.0138               171.8273                 6.9643

                     16                     17                     18
                      A                      A                      A
 Frequencies --    544.7074               568.6306               617.1947
 Red. masses --      3.7672                 2.5132                 8.1592
 Frc consts  --      0.6586                 0.4788                 1.8312
 IR Inten    --      8.3968                 1.4489                 0.2003

                     19                     20                     21
                      A                      A                      A
 Frequencies --    629.0528               648.1585               656.3081
 Red. masses --      3.3961                 3.4161                 2.9220
 Frc consts  --      0.7918                 0.8456                 0.7416
 IR Inten    --     10.1640                28.3226                21.1608

                     22                     23                     24
                      A                      A                      A
 Frequencies --    713.1256               723.0309               797.0169
 Red. masses --      5.4557                 4.1881                 1.3061
 Frc consts  --      1.6347                 1.2900                 0.4888
 IR Inten    --      1.4528                 5.1068               122.4871

                     25                     26                     27
                      A                      A                      A
 Frequencies --    822.3282               841.1035               995.0580
 Red. masses --      1.5975                 1.5539                 2.1050
 Frc consts  --      0.6365                 0.6477                 1.2280
 IR Inten    --     75.2698                16.0103                34.6207

                     28                     29                     30
                      A                      A                      A
 Frequencies --   1046.8645              1046.8686              1092.4862
 Red. masses --      2.0564                 2.3300                 1.8754
 Frc consts  --      1.3278                 1.5045                 1.3188
 IR Inten    --      3.2456                 4.6723                47.7655

                     31                     32                     33
                      A                      A                      A
 Frequencies --   1107.4988              1183.0019              1193.1925
 Red. masses --      3.4466                 1.2685                 1.2216
 Frc consts  --      2.4907                 1.0460                 1.0247
 IR Inten    --    109.2473                52.3588                82.9354

                     34                     35                     36
                      A                      A                      A
 Frequencies --   1230.7236              1266.8042              1301.8157
 Red. masses --      1.5275                 2.5126                 1.9268
 Frc consts  --      1.3632                 2.3757                 1.9240
 IR Inten    --    131.3492                53.4665                41.4361

                     37                     38                     39
                      A                      A                      A
 Frequencies --   1314.4994              1393.3293              1410.1157
 Red. masses --      1.7620                 1.1771                 3.4047
 Frc consts  --      1.7938                 1.3464                 3.9888
 IR Inten    --    240.3062                49.6464               284.1560

                     40                     41                     42
                      A                      A                      A
 Frequencies --   1444.0248              1458.4937              1470.2829
 Red. masses --      1.9179                 3.0402                 1.0437
 Frc consts  --      2.3562                 3.8103                 1.3294
 IR Inten    --     16.9361               102.3055                19.3884

                     43                     44                     45
                      A                      A                      A
 Frequencies --   1494.1010              1544.0493              1588.8657
 Red. masses --      2.3559                 3.2494                 5.0971
 Frc consts  --      3.0987                 4.5643                 7.5813
 IR Inten    --    630.3354               309.3494               278.5673

                     46                     47                     48
                      A                      A                      A
 Frequencies --   1599.2784              1646.4884              1722.5428
 Red. masses --      4.2798                 6.2211                 7.3881
 Frc consts  --      6.4494                 9.9366                12.9159
 IR Inten    --    145.4617               250.6531               913.3292

                     49                     50                     51
                      A                      A                      A
 Frequencies --   3090.6845              3164.8755              3208.9559
 Red. masses --      1.0357                 1.0988                 1.1072
 Frc consts  --      5.8289                 6.4844                 6.7177
 IR Inten    --     16.2962                 2.8472                 5.3891

                     52                     53                     54
                      A                      A                      A
 Frequencies --   3217.7859              3223.8902              3550.3136
 Red. masses --      1.0940                 1.0945                 1.0676
 Frc consts  --      6.6740                 6.7024                 7.9287
 IR Inten    --      0.6995                 6.2361               305.8657

                     55                     56                     57
                      A                      A                      A
 Frequencies --   3851.3614              3854.6143              3860.7170
 Red. masses --      1.0670                 1.0671                 1.0668
 Frc consts  --      9.3246                 9.3417                 9.3681
 IR Inten    --    118.4307               360.2463               142.7810

 - Thermochemistry -
 -------------------
 Temperature   298.150 Kelvin.  Pressure   1.00000 Atm.
 Atom     1 has atomic number  6 and mass  12.00000

 Molecular mass:   169.05008 amu.
 Principal axes and moments of inertia in atomic units:
                           1         2         3
     Eigenvalues --  1179.710132365.822113534.48173
           X            0.99943   0.03374   0.00005
           Y           -0.03374   0.99943  -0.00007
           Z           -0.00005   0.00007   1.00000
 This molecule is an asymmetric top.
 Rotational symmetry number  1.
 Warning -- assumption of classical behavior for rotation
           may cause significant error
 Rotational temperatures (Kelvin)      0.07342     0.03661     0.02451
 Rotational constants (GHZ):           1.52982     0.76284     0.51061
 Zero-point vibrational energy     435406.1 (Joules/Mol)
                                  104.06455 (Kcal/Mol)
 Warning -- explicit consideration of  18 degrees of freedom as
           vibrations may cause significant error
 Vibrational temperatures:     85.26   122.58   285.02   307.81   373.67
          (Kelvin)            387.78   415.40   454.91   504.59   542.69
                              568.29   617.39   621.43   660.53   757.31
                              783.71   818.13   888.00   905.07   932.55
                              944.28  1026.03  1040.28  1146.73  1183.15
                             1210.16  1431.66  1506.20  1506.21  1571.84
                             1593.44  1702.07  1716.74  1770.73  1822.65
                             1873.02  1891.27  2004.69  2028.84  2077.63
                             2098.44  2115.41  2149.68  2221.54  2286.02
                             2301.00  2368.93  2478.35  4446.80  4553.54
                             4616.97  4629.67  4638.45  5108.10  5541.24
                             5545.92  5554.70

 Zero-point correction=                           0.165837 (Hartree/Particle)
 Thermal correction to Energy=                    0.176799
 Thermal correction to Enthalpy=                  0.177743
 Thermal correction to Gibbs Free Energy=         0.129667
 Sum of electronic and zero-point Energies=           -610.547686
 Sum of electronic and thermal Energies=              -610.536724
 Sum of electronic and thermal Enthalpies=            -610.535780
 Sum of electronic and thermal Free Energies=         -610.583856

                     E (Thermal)             CV                S
                      KCal/Mol        Cal/Mol-Kelvin    Cal/Mol-Kelvin
 Total                  110.943             43.255            101.185
 Electronic               0.000              0.000              0.000
 Translational            0.889              2.981             41.283
 Rotational               0.889              2.981             30.668
 Vibrational            109.166             37.294             29.234
 Vibration     1          0.597              1.974              4.482
 Vibration     2          0.601              1.959              3.767
 Vibration     3          0.637              1.843              2.151
 Vibration     4          0.644              1.820              2.010
 Vibration     5          0.668              1.746              1.664
 Vibration     6          0.674              1.729              1.599
 Vibration     7          0.685              1.695              1.481
 Vibration     8          0.703              1.643              1.330
 Vibration     9          0.728              1.574              1.163
 Vibration    10          0.748              1.519              1.050
 Vibration    11          0.762              1.481              0.981
 Vibration    12          0.790              1.407              0.862
 Vibration    13          0.793              1.401              0.852
 Vibration    14          0.817              1.341              0.769
 Vibration    15          0.881              1.192              0.595
 Vibration    16          0.900              1.151              0.555
 Vibration    17          0.925              1.099              0.507
 Vibration    18          0.977              0.996              0.421

 Normal termination of Gaussian 09 at Sun Jun 16 17:17:35 2024.
