 Gaussian 09, Revision E.01,
 Gaussian 09:  ES64L-G09RevE.01 30-Nov-2015

 ----------------------------
 # opt freq m062x/6-31+g(d,p)
 ----------------------------

 ----------
 [No Title]
 ----------
 Symbolic Z-matrix:
 Charge =  0 Multiplicity = 1

 SCF Done:  E(RM062X) =  -610.363209392     A.U. after   15 cycles
 SCF Done:  E(RM062X) =  -610.363583302     A.U. after   12 cycles
 SCF Done:  E(RM062X) =  -610.363608742     A.U. after   12 cycles
 SCF Done:  E(RM062X) =  -610.363618499     A.U. after   12 cycles
 SCF Done:  E(RM062X) =  -610.363639724     A.U. after   12 cycles
 SCF Done:  E(RM062X) =  -610.363633929     A.U. after   12 cycles
 SCF Done:  E(RM062X) =  -610.363642211     A.U. after   11 cycles
 Optimization completed.
    -- Stationary point found.
 Normal termination of Gaussian 09 at Sun Jun 16 16:59:45 2024.

 ----------------------------------------------------------------------
 #N Geom=AllCheck Guess=TCheck SCRF=Check GenChk RM062X/6-31+G(d,p) Fre
 q
 ----------------------------------------------------------------------

 Structure from the checkpoint file:  "m062xTHAP.chk"
 ----------
 [No Title]
 ----------
 Charge =  0 Multiplicity = 1

                         Standard orientation:
 ---------------------------------------------------------------------
 Center     Atomic      Atomic             Coordinates (Angstroms)
 Number     Number       Type             X           Y           Z
 ---------------------------------------------------------------------
      1          6           0        1.521674    1.251533   -0.000056
      2          6           0        2.255861    0.060641   -0.000035
      3          6           0        1.626396   -1.174194    0.000013
      4          6           0        0.230052   -1.228100    0.000036
      5          6           0       -0.561867   -0.040186    0.000029
      6          6           0        0.138366    1.192129   -0.000030
      7          8           0       -0.587179    2.341012   -0.000030
      8          6           0       -2.026370   -0.171356    0.000080
      9          6           0       -2.947940    1.020760   -0.000027
     10          8           0       -2.543428   -1.298111    0.000095
     11          8           0       -0.329306   -2.433207    0.000053
     12          8           0        3.603459    0.186996   -0.000059
     13          1           0        2.049818    2.199296   -0.000071
     14          1           0        2.181140   -2.106506    0.000023
     15          1           0        0.010344    3.098005   -0.000296
     16          1           0       -2.767640    1.647238   -0.876505
     17          1           0       -3.970796    0.645532   -0.000030
     18          1           0       -2.767685    1.647349    0.876381
     19          1           0       -1.319039   -2.288165    0.000011
     20          1           0        4.018455   -0.683635   -0.000042
 ---------------------------------------------------------------------

 SCF Done:  E(RM062X) =  -610.363642211     A.U. after    1 cycles

 The electronic state is 1-A.
 Alpha  occ. eigenvalues --  -19.70270 -19.69875 -19.66451 -19.65141 -10.65932
 Alpha  occ. eigenvalues --  -10.64937 -10.64455 -10.64139 -10.56876 -10.56011
 Alpha  occ. eigenvalues --  -10.55501 -10.54863  -1.21764  -1.21218  -1.20184
 Alpha  occ. eigenvalues --   -1.16649  -0.96915  -0.88253  -0.85468  -0.83259
 Alpha  occ. eigenvalues --   -0.74915  -0.72970  -0.68395  -0.66489  -0.60617
 Alpha  occ. eigenvalues --   -0.59785  -0.58561  -0.56177  -0.54330  -0.52279
 Alpha  occ. eigenvalues --   -0.51454  -0.51175  -0.49473  -0.49408  -0.48819
 Alpha  occ. eigenvalues --   -0.48182  -0.45454  -0.43957  -0.43673  -0.43305
 Alpha  occ. eigenvalues --   -0.37413  -0.33868  -0.29676  -0.28473
 Alpha virt. eigenvalues --   -0.02250  -0.00071   0.00706   0.02717   0.02748
 Alpha virt. eigenvalues --    0.04011   0.04464   0.05130   0.05521   0.06134
 Alpha virt. eigenvalues --    0.06724   0.06916   0.08667   0.09116   0.09298

 Mulliken charges:
               1
     1  C    0.817057
     2  C   -0.557137
     3  C    0.762700
     4  C   -1.092801
     5  C    1.780844
     6  C   -1.725879
     7  O   -0.564042
     8  C    0.511441
     9  C   -0.463977
    10  O   -0.492109
    11  O   -0.557846
    12  O   -0.526787
    13  H    0.146478
    14  H    0.153214
    15  H    0.401075
    16  H    0.192535
    17  H    0.187071
    18  H    0.192537
    19  H    0.456600
    20  H    0.379028
 Sum of Mulliken charges =  -0.00000

 Dipole moment (field-independent basis, Debye):
    X=              2.1747    Y=              3.0588    Z=             -0.0006  Tot=              3.7530
 Quadrupole moment (field-independent basis, Debye-Ang):
   XX=            -66.6395   YY=            -65.6090   ZZ=            -72.1129
   XY=             -8.7287   XZ=              0.0004   YZ=             -0.0012

  Exact polarizability: 146.978   2.257 118.722  -0.002  -0.002  59.610
 Approx polarizability: 169.895   9.657 155.810  -0.002  -0.003  78.217

                      1                      2                      3
                      A                      A                      A
 Frequencies --     54.6327               103.9892               198.2413
 Red. masses --      3.7009                10.5847                 2.5541
 Frc consts  --      0.0065                 0.0674                 0.0591
 IR Inten    --      0.9218                 0.0833                 4.2696

                      4                      5                      6
                      A                      A                      A
 Frequencies --    223.9727               232.2382               264.7858
 Red. masses --      1.8207                 2.6631                 4.6566
 Frc consts  --      0.0538                 0.0846                 0.1924
 IR Inten    --      0.0457                 0.6257                12.4600

                      7                      8                      9
                      A                      A                      A
 Frequencies --    275.5778               338.7357               342.4845
 Red. masses --      3.2763                 5.4918                 1.3005
 Frc consts  --      0.1466                 0.3713                 0.0899
 IR Inten    --     12.5826                 6.8866                76.5754

                     10                     11                     12
                      A                      A                      A
 Frequencies --    356.8189               373.9289               435.0592
 Red. masses --      6.2916                 4.2070                 6.3868
 Frc consts  --      0.4720                 0.3466                 0.7122
 IR Inten    --     12.9804                 1.7747                 4.0494

                     13                     14                     15
                      A                      A                      A
 Frequencies --    450.3884               531.6735               574.5658
 Red. masses --      1.1020                 6.9137                 2.8687
 Frc consts  --      0.1317                 1.1515                 0.5580
 IR Inten    --    128.4511                 9.2135                 0.4631

                     16                     17                     18
                      A                      A                      A
 Frequencies --    580.3915               619.9167               632.2378
 Red. masses --      5.5943                 7.9984                 3.1914
 Frc consts  --      1.1103                 1.8110                 0.7516
 IR Inten    --     25.4195                 4.8577                 1.2818

                     19                     20                     21
                      A                      A                      A
 Frequencies --    646.2841               646.8885               717.7764
 Red. masses --      2.7727                 3.9164                 6.1862
 Frc consts  --      0.6823                 0.9656                 1.8778
 IR Inten    --     12.5982                15.9525                 0.4105

                     22                     23                     24
                      A                      A                      A
 Frequencies --    719.9676               802.5780               822.2879
 Red. masses --      3.9273                 1.7299                 1.5913
 Frc consts  --      1.1994                 0.6565                 0.6339
 IR Inten    --     15.7421                54.4844                43.1003

                     25                     26                     27
                      A                      A                      A
 Frequencies --    937.7869               984.1810              1044.2728
 Red. masses --      1.0616                 2.0781                 1.8208
 Frc consts  --      0.5501                 1.1859                 1.1699
 IR Inten    --     90.5130                33.7976                 2.8616

                     28                     29                     30
                      A                      A                      A
 Frequencies --   1045.8407              1097.7832              1114.0868
 Red. masses --      3.1233                 2.4092                 3.7548
 Frc consts  --      2.0128                 1.7107                 2.7458
 IR Inten    --      9.4051                29.9186                74.5595

                     31                     32                     33
                      A                      A                      A
 Frequencies --   1186.6561              1210.6319              1244.0128
 Red. masses --      1.3565                 1.3882                 2.0513
 Frc consts  --      1.1255                 1.1988                 1.8704
 IR Inten    --    117.9005                38.3287               217.4830

                     34                     35                     36
                      A                      A                      A
 Frequencies --   1286.6554              1322.9922              1355.9210
 Red. masses --      1.6233                 2.9746                 2.5900
 Frc consts  --      1.5833                 3.0675                 2.8055
 IR Inten    --    239.9686               142.1435               115.1680

                     37                     38                     39
                      A                      A                      A
 Frequencies --   1407.6083              1420.9962              1454.8626
 Red. masses --      1.7495                 2.9538                 1.1363
 Frc consts  --      2.0423                 3.5141                 1.4170
 IR Inten    --    130.7699                 7.7306                24.1183

                     40                     41                     42
                      A                      A                      A
 Frequencies --   1474.4439              1486.9411              1524.5629
 Red. masses --      1.0462                 3.4007                 4.3625
 Frc consts  --      1.3400                 4.4301                 5.9742
 IR Inten    --     12.5464                12.3055               233.5154

                     43                     44                     45
                      A                      A                      A
 Frequencies --   1582.1340              1680.5068              1713.4109
 Red. masses --      2.9447                 4.8430                 8.0076
 Frc consts  --      4.3429                 8.0584                13.8508
 IR Inten    --     73.6417               177.8019               459.4661

                     46                     47                     48
                      A                      A                      A
 Frequencies --   1731.3425              3084.4995              3136.9816
 Red. masses --      6.3124                 1.0349                 1.0741
 Frc consts  --     11.1483                 5.8012                 6.2277
 IR Inten    --    612.5217                 1.7855               546.1030

                     49                     50                     51
                      A                      A                      A
 Frequencies --   3163.0789              3193.6062              3212.5294
 Red. masses --      1.0997                 1.1066                 1.0930
 Frc consts  --      6.4824                 6.6498                 6.6459
 IR Inten    --      2.0067                13.8685                 1.1035

                     52                     53                     54
                      A                      A                      A
 Frequencies --   3221.8706              3881.2735              3887.1224
 Red. masses --      1.0929                 1.0663                 1.0663
 Frc consts  --      6.6842                 9.4637                 9.4924
 IR Inten    --      2.5456               111.6406                91.8928

 - Thermochemistry -
 -------------------
 Temperature   298.150 Kelvin.  Pressure   1.00000 Atm.
 Atom     1 has atomic number  6 and mass  12.00000

 Molecular mass:   168.04226 amu.
 Principal axes and moments of inertia in atomic units:
                           1         2         3
     Eigenvalues --  1160.566942348.009393497.51798
           X            0.99941  -0.03437   0.00001
           Y            0.03437   0.99941   0.00003
           Z           -0.00002  -0.00003   1.00000
 This molecule is an asymmetric top.
 Rotational symmetry number  1.
 Warning -- assumption of classical behavior for rotation
           may cause significant error
 Rotational temperatures (Kelvin)      0.07463     0.03689     0.02476
 Rotational constants (GHZ):           1.55505     0.76863     0.51601
 Zero-point vibrational energy     400952.4 (Joules/Mol)
                                   95.82993 (Kcal/Mol)
 Warning -- explicit consideration of  17 degrees of freedom as
           vibrations may cause significant error
 Vibrational temperatures:     78.60   149.62   285.22   322.25   334.14
          (Kelvin)            380.97   396.49   487.36   492.76   513.38
                              538.00   625.95   648.01   764.96   826.67
                              835.05   891.92   909.65   929.86   930.73
                             1032.72  1035.87  1154.73  1183.09  1349.26
                             1416.02  1502.47  1504.73  1579.46  1602.92
                             1707.33  1741.83  1789.85  1851.21  1903.49
                             1950.87  2025.23  2044.49  2093.22  2121.39
                             2139.37  2193.50  2276.34  2417.87  2465.21
                             2491.01  4437.90  4513.41  4550.96  4594.88
                             4622.11  4635.55  5584.28  5592.70

 Zero-point correction=                           0.152715 (Hartree/Particle)
 Thermal correction to Energy=                    0.163382
 Thermal correction to Enthalpy=                  0.164326
 Thermal correction to Gibbs Free Energy=         0.116721
 Sum of electronic and zero-point Energies=           -610.210927
 Sum of electronic and thermal Energies=              -610.200260
 Sum of electronic and thermal Enthalpies=            -610.199316
 Sum of electronic and thermal Free Energies=         -610.246922

                     E (Thermal)             CV                S
                      KCal/Mol        Cal/Mol-Kelvin    Cal/Mol-Kelvin
 Total                  102.524             41.562            100.195
 Electronic               0.000              0.000              0.000
 Translational            0.889              2.981             41.265
 Rotational               0.889              2.981             30.634
 Vibrational            100.746             35.600             28.296
 Vibration     1          0.596              1.976              4.642
 Vibration     2          0.605              1.946              3.378
 Vibration     3          0.637              1.842              2.149
 Vibration     4          0.649              1.805              1.927
 Vibration     5          0.653              1.792              1.862
 Vibration     6          0.671              1.738              1.630
 Vibration     7          0.677              1.719              1.561
 Vibration     8          0.719              1.598              1.218
 Vibration     9          0.722              1.591              1.201
 Vibration    10          0.732              1.561              1.136
 Vibration    11          0.745              1.526              1.064
 Vibration    12          0.796              1.394              0.842
 Vibration    13          0.809              1.360              0.795
 Vibration    14          0.887              1.180              0.583
 Vibration    15          0.931              1.086              0.496
 Vibration    16          0.937              1.074              0.485
 Vibration    17          0.980              0.990              0.417

 Optimization completed.
    -- Stationary point found.
 Normal termination of Gaussian 09 at Sun Jun 16 17:02:21 2024.
