 Gaussian 09, Revision E.01,
 Gaussian 09:  ES64L-G09RevE.01 30-Nov-2015

 -----------------------------
 # opt freq pbepbe/6-31+g(d,p)
 -----------------------------

 ----------
 [No Title]
 ----------
 Symbolic Z-matrix:
 Charge =  1 Multiplicity = 1

 SCF Done:  E(RPBE-PBE) =  -610.276738210     A.U. after   17 cycles
 SCF Done:  E(RPBE-PBE) =  -610.277906681     A.U. after   13 cycles
 SCF Done:  E(RPBE-PBE) =  -610.277928002     A.U. after   12 cycles
 SCF Done:  E(RPBE-PBE) =  -610.277933891     A.U. after   11 cycles
 SCF Done:  E(RPBE-PBE) =  -610.277948627     A.U. after   11 cycles
 SCF Done:  E(RPBE-PBE) =  -610.277949845     A.U. after   10 cycles
 Optimization completed.
    -- Stationary point found.
 Normal termination of Gaussian 09 at Sun Jun 16 16:20:53 2024.

 ----------------------------------------------------------------------
 #N Geom=AllCheck Guess=TCheck SCRF=Check GenChk RPBEPBE/6-31+G(d,p) Fr
 eq
 ----------------------------------------------------------------------

 Structure from the checkpoint file:  "pbeTHAPyang.chk"
 ----------
 [No Title]
 ----------
 Charge =  1 Multiplicity = 1

                         Standard orientation:
 ---------------------------------------------------------------------
 Center     Atomic      Atomic             Coordinates (Angstroms)
 Number     Number       Type             X           Y           Z
 ---------------------------------------------------------------------
      1          6           0        1.560345   -1.269000   -0.000181
      2          6           0        2.297885   -0.071775    0.000051
      3          6           0        1.642553    1.182999    0.000018
      4          6           0        0.258182    1.215439   -0.000135
      5          6           0       -0.562495    0.022339   -0.000180
      6          6           0        0.169426   -1.231351   -0.000355
      7          8           0       -0.557242   -2.369508   -0.000662
      8          6           0       -1.992368    0.078456    0.000263
      9          6           0       -2.921753   -1.086130    0.000455
     10          8           0       -2.644620    1.222836    0.000630
     11          8           0       -0.415448    2.408034   -0.000420
     12          8           0        3.634529   -0.195562    0.000201
     13          1           0        2.100789   -2.219540   -0.000269
     14          1           0        2.219330    2.113518   -0.000084
     15          1           0        0.034166   -3.148777   -0.000684
     16          1           0       -2.749283   -1.726566   -0.879760
     17          1           0       -2.748467   -1.727009    0.880182
     18          1           0       -3.954647   -0.714476    0.001014
     19          1           0       -2.016198    1.996668    0.000508
     20          1           0        0.184221    3.179794    0.001120
     21          1           0        4.081686    0.674133    0.000375
 ---------------------------------------------------------------------

 SCF Done:  E(RPBE-PBE) =  -610.277949845     A.U. after    1 cycles

 The electronic state is 1-A.
 Alpha  occ. eigenvalues --  -19.01518 -19.00135 -18.98991 -18.98822 -10.18170
 Alpha  occ. eigenvalues --  -10.16610 -10.15796 -10.15547 -10.10216 -10.08197
 Alpha  occ. eigenvalues --  -10.07006 -10.05134  -1.18640  -1.16381  -1.15790
 Alpha  occ. eigenvalues --   -1.15467  -0.95291  -0.88743  -0.85231  -0.83814
 Alpha  occ. eigenvalues --   -0.77098  -0.75331  -0.72850  -0.70517  -0.68165
 Alpha  occ. eigenvalues --   -0.66020  -0.62641  -0.60582  -0.57897  -0.56910
 Alpha  occ. eigenvalues --   -0.55720  -0.55673  -0.54692  -0.53104  -0.52320
 Alpha  occ. eigenvalues --   -0.51578  -0.50954  -0.48999  -0.48780  -0.47301
 Alpha  occ. eigenvalues --   -0.46674  -0.43202  -0.38367  -0.37172
 Alpha virt. eigenvalues --   -0.27004  -0.19660  -0.17223  -0.16864  -0.14904
 Alpha virt. eigenvalues --   -0.14441  -0.12786  -0.10399  -0.09649  -0.09277
 Alpha virt. eigenvalues --   -0.08911  -0.07098  -0.06344  -0.06201  -0.05492

 Mulliken charges:
               1
     1  C    1.173210
     2  C   -0.995888
     3  C    0.905155
     4  C   -1.192022
     5  C    2.516827
     6  C   -2.614112
     7  O   -0.461080
     8  C    0.609400
     9  C   -0.330928
    10  O   -0.325512
    11  O   -0.556820
    12  O   -0.410634
    13  H    0.172182
    14  H    0.150112
    15  H    0.408687
    16  H    0.236331
    17  H    0.236308
    18  H    0.222808
    19  H    0.448220
    20  H    0.426124
    21  H    0.381632
 Sum of Mulliken charges =   1.00000

 Dipole moment (field-independent basis, Debye):
    X=              1.8069    Y=              1.6362    Z=              0.0029  Tot=              2.4376
 Quadrupole moment (field-independent basis, Debye-Ang):
   XX=            -42.2062   YY=            -36.0065   ZZ=            -69.9168
   XY=              8.8433   XZ=             -0.0002   YZ=              0.0117

  Exact polarizability: 173.034   2.812 122.636  -0.003   0.009  57.080
 Approx polarizability: 395.719  -7.572 246.989   0.001   0.020  95.605

                      1                      2                      3
                      A                      A                      A
 Frequencies --     55.1558                89.5438               186.2114
 Red. masses --      5.0283                 4.8329                 3.1905
 Frc consts  --      0.0090                 0.0228                 0.0652
 IR Inten    --      0.7346                 0.2972                 2.7499

                      4                      5                      6
                      A                      A                      A
 Frequencies --    199.6497               221.8294               255.8928
 Red. masses --      4.4117                 1.3170                 4.7271
 Frc consts  --      0.1036                 0.0382                 0.1824
 IR Inten    --      5.0440                 0.2299                 0.9683

                      7                      8                      9
                      A                      A                      A
 Frequencies --    270.3130               330.1541               338.4165
 Red. masses --      2.7075                 1.2510                 5.5114
 Frc consts  --      0.1166                 0.0803                 0.3719
 IR Inten    --     45.1695                86.2263                11.7008

                     10                     11                     12
                      A                      A                      A
 Frequencies --    360.0891               385.9638               414.2125
 Red. masses --      4.9469                 4.8218                 5.7709
 Frc consts  --      0.3779                 0.4232                 0.5834
 IR Inten    --      4.0511                 5.5775                 4.2425

                     13                     14                     15
                      A                      A                      A
 Frequencies --    452.2640               472.8409               508.3771
 Red. masses --      1.1342                 1.1206                 7.0223
 Frc consts  --      0.1367                 0.1476                 1.0693
 IR Inten    --     30.0302               160.8170                 3.4418

                     16                     17                     18
                      A                      A                      A
 Frequencies --    525.6993               547.2115               591.8762
 Red. masses --      3.9847                 2.8227                 8.0044
 Frc consts  --      0.6488                 0.4980                 1.6521
 IR Inten    --      6.8068                 0.2169                 0.4715

                     19                     20                     21
                      A                      A                      A
 Frequencies --    598.9423               623.2199               624.8723
 Red. masses --      3.3108                 3.4649                 2.9600
 Frc consts  --      0.6998                 0.7929                 0.6810
 IR Inten    --     12.5493                29.4494                27.6678

                     22                     23                     24
                      A                      A                      A
 Frequencies --    696.0497               701.5869               765.3655
 Red. masses --      4.1986                 5.6325                 1.6404
 Frc consts  --      1.1985                 1.6335                 0.5662
 IR Inten    --      4.6223                 2.7733                49.4448

                     25                     26                     27
                      A                      A                      A
 Frequencies --    801.3715               809.8878               959.4805
 Red. masses --      1.5257                 1.2345                 1.9949
 Frc consts  --      0.5773                 0.4771                 1.0820
 IR Inten    --     53.7389                64.4870                34.8984

                     28                     29                     30
                      A                      A                      A
 Frequencies --   1008.2907              1008.7162              1048.7159
 Red. masses --      3.2761                 1.6506                 2.9236
 Frc consts  --      1.9624                 0.9895                 1.8945
 IR Inten    --      0.0451                 0.1337                77.2866

                     31                     32                     33
                      A                      A                      A
 Frequencies --   1059.5504              1146.4485              1158.9071
 Red. masses --      2.7481                 1.2872                 1.2059
 Frc consts  --      1.8177                 0.9968                 0.9542
 IR Inten    --     52.7602                74.8410                99.9065

                     34                     35                     36
                      A                      A                      A
 Frequencies --   1189.2550              1211.8908              1252.6159
 Red. masses --      1.6014                 2.2160                 1.9971
 Frc consts  --      1.3345                 1.9175                 1.8463
 IR Inten    --    116.1449                35.3384                73.9883

                     37                     38                     39
                      A                      A                      A
 Frequencies --   1290.9237              1343.9197              1353.0370
 Red. masses --      1.9892                 1.1935                 2.6316
 Frc consts  --      1.9531                 1.2700                 2.8385
 IR Inten    --    157.7190                75.3538               163.7274

                     40                     41                     42
                      A                      A                      A
 Frequencies --   1390.2482              1410.2477              1418.9589
 Red. masses --      1.7318                 1.0429                 4.3145
 Frc consts  --      1.9721                 1.2221                 5.1182
 IR Inten    --      5.8129                19.3200                18.1387

                     43                     44                     45
                      A                      A                      A
 Frequencies --   1449.7078              1477.8466              1505.0355
 Red. masses --      2.5452                 2.6192                 4.9207
 Frc consts  --      3.1516                 3.3704                 6.5671
 IR Inten    --    279.1402               238.8089               193.7053

                     46                     47                     48
                      A                      A                      A
 Frequencies --   1537.9020              1569.3488              1646.5167
 Red. masses --      3.3465                 5.6245                 7.1866
 Frc consts  --      4.6634                 8.1616                11.4791
 IR Inten    --    215.3963               174.4073               716.8441

                     49                     50                     51
                      A                      A                      A
 Frequencies --   3003.2945              3070.0558              3121.1600
 Red. masses --      1.0371                 1.0975                 1.1050
 Frc consts  --      5.5114                 6.0947                 6.3420
 IR Inten    --     17.7880                 1.9120                 5.6858

                     52                     53                     54
                      A                      A                      A
 Frequencies --   3123.8156              3144.9656              3307.7833
 Red. masses --      1.0926                 1.0928                 1.0672
 Frc consts  --      6.2818                 6.3680                 6.8798
 IR Inten    --      0.0787                 3.0980               247.4962

                     55                     56                     57
                      A                      A                      A
 Frequencies --   3676.9408              3685.1318              3690.9593
 Red. masses --      1.0663                 1.0667                 1.0669
 Frc consts  --      8.4940                 8.5348                 8.5635
 IR Inten    --    145.8788               136.3532               178.1093

 - Thermochemistry -
 -------------------
 Temperature   298.150 Kelvin.  Pressure   1.00000 Atm.
 Atom     1 has atomic number  6 and mass  12.00000

 Molecular mass:   169.05008 amu.
 Principal axes and moments of inertia in atomic units:
                           1         2         3
     Eigenvalues --  1197.123392407.202703593.17839
           X            0.99943   0.03386   0.00005
           Y           -0.03386   0.99943  -0.00008
           Z           -0.00005   0.00008   1.00000
 This molecule is an asymmetric top.
 Rotational symmetry number  1.
 Warning -- assumption of classical behavior for rotation
           may cause significant error
 Rotational temperatures (Kelvin)      0.07235     0.03598     0.02411
 Rotational constants (GHZ):           1.50756     0.74973     0.50227
 Zero-point vibrational energy     419223.3 (Joules/Mol)
                                  100.19678 (Kcal/Mol)
 Warning -- explicit consideration of  19 degrees of freedom as
           vibrations may cause significant error
 Vibrational temperatures:     79.36   128.83   267.92   287.25   319.16
          (Kelvin)            368.17   388.92   475.02   486.91   518.09
                              555.32   595.96   650.71   680.31   731.44
                              756.36   787.31   851.58   861.74   896.67
                              899.05  1001.46  1009.43  1101.19  1152.99
                             1165.25  1380.48  1450.70  1451.32  1508.87
                             1524.45  1649.48  1667.41  1711.07  1743.64
                             1802.23  1857.35  1933.60  1946.72  2000.25
                             2029.03  2041.56  2085.80  2126.29  2165.41
                             2212.70  2257.94  2368.97  4321.07  4417.12
                             4490.65  4494.47  4524.90  4759.16  5290.29
                             5302.08  5310.46

 Zero-point correction=                           0.159674 (Hartree/Particle)
 Thermal correction to Energy=                    0.170971
 Thermal correction to Enthalpy=                  0.171915
 Thermal correction to Gibbs Free Energy=         0.123170
 Sum of electronic and zero-point Energies=           -610.118276
 Sum of electronic and thermal Energies=              -610.106979
 Sum of electronic and thermal Enthalpies=            -610.106034
 Sum of electronic and thermal Free Energies=         -610.154780

                     E (Thermal)             CV                S
                      KCal/Mol        Cal/Mol-Kelvin    Cal/Mol-Kelvin
 Total                  107.286             44.517            102.594
 Electronic               0.000              0.000              0.000
 Translational            0.889              2.981             41.283
 Rotational               0.889              2.981             30.716
 Vibrational            105.509             38.555             30.595
 Vibration     1          0.596              1.976              4.623
 Vibration     2          0.602              1.957              3.670
 Vibration     3          0.632              1.859              2.265
 Vibration     4          0.638              1.840              2.136
 Vibration     5          0.648              1.808              1.944
 Vibration     6          0.666              1.753              1.690
 Vibration     7          0.674              1.728              1.594
 Vibration     8          0.713              1.615              1.259
 Vibration     9          0.719              1.599              1.220
 Vibration    10          0.735              1.554              1.122
 Vibration    11          0.755              1.500              1.016
 Vibration    12          0.778              1.439              0.912
 Vibration    13          0.811              1.356              0.789
 Vibration    14          0.830              1.310              0.730
 Vibration    15          0.864              1.231              0.638
 Vibration    16          0.881              1.193              0.597
 Vibration    17          0.902              1.146              0.550
 Vibration    18          0.949              1.049              0.464
 Vibration    19          0.957              1.034              0.451

 Optimization completed.
    -- Stationary point found.
 Normal termination of Gaussian 09 at Sun Jun 16 16:22:54 2024.
