 Gaussian 09, Revision E.01,
 Gaussian 09:  ES64L-G09RevE.01 30-Nov-2015

 -----------------------------
 # opt freq pbepbe/6-31+g(d,p)
 -----------------------------

 ----------
 [No Title]
 ----------
 Symbolic Z-matrix:
 Charge =  0 Multiplicity = 1

 SCF Done:  E(RPBE-PBE) =  -609.925900829     A.U. after   17 cycles
 SCF Done:  E(RPBE-PBE) =  -609.927190189     A.U. after   14 cycles
 SCF Done:  E(RPBE-PBE) =  -609.927000540     A.U. after   13 cycles
 SCF Done:  E(RPBE-PBE) =  -609.927286720     A.U. after    9 cycles
 SCF Done:  E(RPBE-PBE) =  -609.927370104     A.U. after   13 cycles
 SCF Done:  E(RPBE-PBE) =  -609.927397934     A.U. after   12 cycles
 SCF Done:  E(RPBE-PBE) =  -609.927364911     A.U. after   12 cycles
 SCF Done:  E(RPBE-PBE) =  -609.927418355     A.U. after   12 cycles
 SCF Done:  E(RPBE-PBE) =  -609.927419855     A.U. after   10 cycles
 Optimization completed.
    -- Stationary point found.
 Normal termination of Gaussian 09 at Sun Jun 16 16:04:00 2024.

 ----------------------------------------------------------------------
 #N Geom=AllCheck Guess=TCheck SCRF=Check GenChk RPBEPBE/6-31+G(d,p) Fr
 eq
 ----------------------------------------------------------------------

 Structure from the checkpoint file:  "pbeTHAP.chk"
 ----------
 [No Title]
 ----------
 Charge =  0 Multiplicity = 1

                         Standard orientation:
 ---------------------------------------------------------------------
 Center     Atomic      Atomic             Coordinates (Angstroms)
 Number     Number       Type             X           Y           Z
 ---------------------------------------------------------------------
      1          6           0        1.542874    1.251351   -0.000054
      2          6           0        2.273207    0.045778   -0.000027
      3          6           0        1.628207   -1.193490    0.000022
      4          6           0        0.221985   -1.239049    0.000047
      5          6           0       -0.572008   -0.028723    0.000015
      6          6           0        0.148815    1.207388   -0.000034
      7          8           0       -0.573003    2.374839   -0.000061
      8          6           0       -2.028437   -0.158661    0.000033
      9          6           0       -2.965014    1.026373   -0.000014
     10          8           0       -2.556388   -1.311603    0.000043
     11          8           0       -0.365865   -2.438716    0.000095
     12          8           0        3.635363    0.165717   -0.000055
     13          1           0        2.082725    2.202858   -0.000094
     14          1           0        2.181544   -2.136899    0.000043
     15          1           0        0.054084    3.122133   -0.000079
     16          1           0       -2.795950    1.665736   -0.881153
     17          1           0       -3.995045    0.644598   -0.000011
     18          1           0       -2.795967    1.665786    0.881094
     19          1           0       -1.382680   -2.226463    0.000111
     20          1           0        4.032644   -0.725443   -0.000016
 ---------------------------------------------------------------------

 SCF Done:  E(RPBE-PBE) =  -609.927419855     A.U. after    2 cycles

 The electronic state is 1-A.
 Alpha  occ. eigenvalues --  -18.84021 -18.83830 -18.79790 -18.78207 -10.00010
 Alpha  occ. eigenvalues --   -9.99614  -9.99246  -9.98642  -9.92629  -9.91745
 Alpha  occ. eigenvalues --   -9.91160  -9.90400  -1.00322  -0.99963  -0.98185
 Alpha  occ. eigenvalues --   -0.94463  -0.78472  -0.71133  -0.68511  -0.66576
 Alpha  occ. eigenvalues --   -0.59978  -0.58024  -0.54184  -0.52388  -0.47302
 Alpha  occ. eigenvalues --   -0.46900  -0.45432  -0.42855  -0.41142  -0.39944
 Alpha  occ. eigenvalues --   -0.38678  -0.38495  -0.37054  -0.36631  -0.36195
 Alpha  occ. eigenvalues --   -0.35386  -0.34005  -0.32540  -0.31852  -0.31782
 Alpha  occ. eigenvalues --   -0.26372  -0.22353  -0.21772  -0.20401
 Alpha virt. eigenvalues --   -0.08961  -0.03617  -0.03229  -0.02640  -0.00913
 Alpha virt. eigenvalues --    0.00313   0.02094   0.02492   0.02706   0.03408
 Alpha virt. eigenvalues --    0.04770   0.05351   0.06026   0.06154   0.07616

 Mulliken charges:
               1
     1  C    1.067991
     2  C   -0.865045
     3  C    1.017868
     4  C   -1.380308
     5  C    2.489646
     6  C   -2.558069
     7  O   -0.486870
     8  C    0.654367
     9  C   -0.567892
    10  O   -0.441539
    11  O   -0.490320
    12  O   -0.467689
    13  H    0.130349
    14  H    0.136276
    15  H    0.378192
    16  H    0.201516
    17  H    0.191091
    18  H    0.201514
    19  H    0.428916
    20  H    0.360004
 Sum of Mulliken charges =  -0.00000

 Dipole moment (field-independent basis, Debye):
    X=              2.4062    Y=              3.1237    Z=             -0.0000  Tot=              3.9430
 Quadrupole moment (field-independent basis, Debye-Ang):
   XX=            -66.6021   YY=            -65.9726   ZZ=            -72.2002
   XY=             -8.7560   XZ=              0.0002   YZ=             -0.0001

  Exact polarizability: 167.411   1.331 129.737  -0.001  -0.002  62.908
 Approx polarizability: 333.992  25.352 273.735  -0.003  -0.005 105.074

                      1                      2                      3
                      A                      A                      A
 Frequencies --     60.6009               113.7294               183.6015
 Red. masses --      3.9736                 8.3579                 1.4506
 Frc consts  --      0.0086                 0.0637                 0.0288
 IR Inten    --      0.8965                 0.2989                 2.7212

                      4                      5                      6
                      A                      A                      A
 Frequencies --    206.8648               216.9984               257.5267
 Red. masses --      2.3729                 4.9485                 4.3516
 Frc consts  --      0.0598                 0.1373                 0.1700
 IR Inten    --      1.4192                 0.6896                10.7710

                      7                      8                      9
                      A                      A                      A
 Frequencies --    273.5477               329.2300               354.1792
 Red. masses --      4.6543                 5.7374                 4.8746
 Frc consts  --      0.2052                 0.3664                 0.3603
 IR Inten    --      2.2131                 9.3680                 0.9535

                     10                     11                     12
                      A                      A                      A
 Frequencies --    374.1581               388.5666               405.2299
 Red. masses --      5.2018                 1.1537                 1.1146
 Frc consts  --      0.4291                 0.1026                 0.1078
 IR Inten    --      6.3644                 3.2232               181.4374

                     13                     14                     15
                      A                      A                      A
 Frequencies --    431.8981               510.2778               558.8829
 Red. masses --      6.4481                 6.6968                 3.0291
 Frc consts  --      0.7087                 1.0274                 0.5574
 IR Inten    --      5.2589                 8.7030                 0.0382

                     16                     17                     18
                      A                      A                      A
 Frequencies --    561.8225               596.9217               599.9685
 Red. masses --      6.1495                 7.7594                 3.0807
 Frc consts  --      1.1436                 1.6290                 0.6534
 IR Inten    --     19.5205                 7.2687                 1.5282

                     19                     20                     21
                      A                      A                      A
 Frequencies --    615.4356               625.5399               697.6138
 Red. masses --      2.8801                 3.9684                 3.9887
 Frc consts  --      0.6427                 0.9149                 1.1437
 IR Inten    --     13.1810                19.0133                10.8607

                     22                     23                     24
                      A                      A                      A
 Frequencies --    697.8846               752.0921               768.1033
 Red. masses --      5.5234                 1.6975                 1.6624
 Frc consts  --      1.5850                 0.5657                 0.5779
 IR Inten    --      0.0715                39.3900                39.2163

                     25                     26                     27
                      A                      A                      A
 Frequencies --    947.7470              1002.3362              1003.1945
 Red. masses --      2.0711                 1.7303                 3.3078
 Frc consts  --      1.0961                 1.0242                 1.9614
 IR Inten    --     40.7250                16.0336                13.4643

                     28                     29                     30
                      A                      A                      A
 Frequencies --   1026.7863              1050.1780              1064.7155
 Red. masses --      1.0766                 2.6342                 4.4427
 Frc consts  --      0.6688                 1.7117                 2.9673
 IR Inten    --     59.1558                46.1224                60.9254

                     31                     32                     33
                      A                      A                      A
 Frequencies --   1147.8119              1170.9655              1198.0915
 Red. masses --      1.2960                 1.4151                 1.9319
 Frc consts  --      1.0060                 1.1432                 1.6339
 IR Inten    --    175.6336                17.6283               147.0951

                     34                     35                     36
                      A                      A                      A
 Frequencies --   1236.5689              1290.6514              1309.3378
 Red. masses --      1.6998                 2.9240                 2.6569
 Frc consts  --      1.5313                 2.8697                 2.6836
 IR Inten    --    182.6755                41.8024               123.4123

                     37                     38                     39
                      A                      A                      A
 Frequencies --   1352.9710              1392.5619              1399.5251
 Red. masses --      1.7147                 4.7942                 1.3484
 Frc consts  --      1.8493                 5.4777                 1.5561
 IR Inten    --    115.6673                18.3994                20.0655

                     40                     41                     42
                      A                      A                      A
 Frequencies --   1424.2001              1436.2454              1458.2800
 Red. masses --      1.0453                 2.9612                 3.4596
 Frc consts  --      1.2492                 3.5989                 4.3347
 IR Inten    --     13.2319                24.0128               119.0505

                     43                     44                     45
                      A                      A                      A
 Frequencies --   1521.5318              1593.3084              1603.3275
 Red. masses --      2.7770                 5.9103                 3.6872
 Frc consts  --      3.7878                 8.8401                 5.5845
 IR Inten    --    147.0922               213.2401               221.6302

                     46                     47                     48
                      A                      A                      A
 Frequencies --   1644.0429              2591.9602              2997.4715
 Red. masses --      3.7314                 1.0833                 1.0355
 Frc consts  --      5.9422                 4.2881                 5.4816
 IR Inten    --    642.6497               587.0207                 1.1050

                     49                     50                     51
                      A                      A                      A
 Frequencies --   3070.9334              3107.8242              3129.5731
 Red. masses --      1.0985                 1.1048                 1.0912
 Frc consts  --      6.1039                 6.2871                 6.2972
 IR Inten    --      2.7160                11.1645                 3.6353

                     52                     53                     54
                      A                      A                      A
 Frequencies --   3135.2333              3705.5981              3707.7720
 Red. masses --      1.0915                 1.0658                 1.0659
 Frc consts  --      6.3213                 8.6230                 8.6336
 IR Inten    --      3.8473                58.4009                72.4229

 - Thermochemistry -
 -------------------
 Temperature   298.150 Kelvin.  Pressure   1.00000 Atm.
 Atom     1 has atomic number  6 and mass  12.00000

 Molecular mass:   168.04226 amu.
 Principal axes and moments of inertia in atomic units:
                           1         2         3
     Eigenvalues --  1178.400462380.486223547.70991
           X            0.99941  -0.03447   0.00001
           Y            0.03447   0.99941   0.00003
           Z           -0.00001  -0.00003   1.00000
 This molecule is an asymmetric top.
 Rotational symmetry number  1.
 Warning -- assumption of classical behavior for rotation
           may cause significant error
 Rotational temperatures (Kelvin)      0.07350     0.03638     0.02441
 Rotational constants (GHZ):           1.53152     0.75814     0.50871
 Zero-point vibrational energy     384607.9 (Joules/Mol)
                                   91.92349 (Kcal/Mol)
 Warning -- explicit consideration of  19 degrees of freedom as
           vibrations may cause significant error
 Vibrational temperatures:     87.19   163.63   264.16   297.63   312.21
          (Kelvin)            370.52   393.57   473.69   509.58   538.33
                              559.06   583.03   621.40   734.17   804.11
                              808.34   858.84   863.22   885.47   900.01
                             1003.71  1004.10  1082.09  1105.13  1363.59
                             1442.14  1443.37  1477.31  1510.97  1531.89
                             1651.44  1684.76  1723.78  1779.14  1856.96
                             1883.84  1946.62  2003.58  2013.60  2049.10
                             2066.43  2098.14  2189.14  2292.41  2306.83
                             2365.41  3729.25  4312.69  4418.38  4471.46
                             4502.75  4510.90  5331.52  5334.65

 Zero-point correction=                           0.146489 (Hartree/Particle)
 Thermal correction to Energy=                    0.157398
 Thermal correction to Enthalpy=                  0.158342
 Thermal correction to Gibbs Free Energy=         0.110413
 Sum of electronic and zero-point Energies=           -609.780930
 Sum of electronic and thermal Energies=              -609.770022
 Sum of electronic and thermal Enthalpies=            -609.769077
 Sum of electronic and thermal Free Energies=         -609.817007

                     E (Thermal)             CV                S
                      KCal/Mol        Cal/Mol-Kelvin    Cal/Mol-Kelvin
 Total                   98.769             42.690            100.876
 Electronic               0.000              0.000              0.000
 Translational            0.889              2.981             41.265
 Rotational               0.889              2.981             30.677
 Vibrational             96.991             36.729             28.934
 Vibration     1          0.597              1.973              4.438
 Vibration     2          0.607              1.938              3.204
 Vibration     3          0.631              1.862              2.291
 Vibration     4          0.641              1.830              2.071
 Vibration     5          0.646              1.815              1.984
 Vibration     6          0.667              1.750              1.678
 Vibration     7          0.676              1.722              1.574
 Vibration     8          0.712              1.617              1.264
 Vibration     9          0.730              1.567              1.148
 Vibration    10          0.745              1.525              1.063
 Vibration    11          0.757              1.495              1.006
 Vibration    12          0.770              1.459              0.944
 Vibration    13          0.793              1.401              0.852
 Vibration    14          0.865              1.227              0.633
 Vibration    15          0.914              1.120              0.526
 Vibration    16          0.918              1.114              0.520
 Vibration    17          0.955              1.038              0.455
 Vibration    18          0.958              1.032              0.450
 Vibration    19          0.975              0.999              0.424

 Optimization completed.
    -- Stationary point found.
 Normal termination of Gaussian 09 at Sun Jun 16 16:05:52 2024.
