 Gaussian 09, Revision E.01,
 Gaussian 09:  ES64L-G09RevE.01 30-Nov-2015

 -----------------------------
 # opt freq wb97xd/6-31+g(d,p)
 -----------------------------

 ----------
 [No Title]
 ----------
 Symbolic Z-matrix:
 Charge =  1 Multiplicity = 1

 SCF Done:  E(RwB97XD) =  -610.771583065     A.U. after   16 cycles
 SCF Done:  E(RwB97XD) =  -610.771968101     A.U. after   13 cycles
 SCF Done:  E(RwB97XD) =  -610.771989720     A.U. after   11 cycles
 SCF Done:  E(RwB97XD) =  -610.771989418     A.U. after   11 cycles
 SCF Done:  E(RwB97XD) =  -610.771990851     A.U. after   11 cycles
 SCF Done:  E(RwB97XD) =  -610.771991322     A.U. after    9 cycles
 Optimization completed.
    -- Stationary point found.
 Normal termination of Gaussian 09 at Sun Jun 16 16:27:29 2024.

 ----------------------------------------------------------------------
 #N Geom=AllCheck Guess=TCheck SCRF=Check GenChk RwB97XD/6-31+G(d,p) Fr
 eq
 ----------------------------------------------------------------------

 Structure from the checkpoint file:  "WB97XDTHAPyang.chk"
 ----------
 [No Title]
 ----------
 Charge =  1 Multiplicity = 1

                         Standard orientation:
 ---------------------------------------------------------------------
 Center     Atomic      Atomic             Coordinates (Angstroms)
 Number     Number       Type             X           Y           Z
 ---------------------------------------------------------------------
      1          6           0        1.544020   -1.265018   -0.000157
      2          6           0        2.278196   -0.077804    0.000070
      3          6           0        1.633976    1.171795    0.000026
      4          6           0        0.260599    1.210044   -0.000105
      5          6           0       -0.555685    0.026089   -0.000180
      6          6           0        0.163892   -1.221962   -0.000338
      7          8           0       -0.555391   -2.346491   -0.000672
      8          6           0       -1.977820    0.085609    0.000172
      9          6           0       -2.904586   -1.077552    0.000464
     10          8           0       -2.620937    1.212016    0.000525
     11          8           0       -0.397293    2.392494   -0.000311
     12          8           0        3.599507   -0.200478    0.000237
     13          1           0        2.077896   -2.208891   -0.000236
     14          1           0        2.210652    2.091753   -0.000042
     15          1           0        0.011938   -3.126685   -0.000713
     16          1           0       -2.730257   -1.705780   -0.876202
     17          1           0       -2.728844   -1.706678    0.876191
     18          1           0       -3.927729   -0.704825    0.001431
     19          1           0       -2.023303    1.988070    0.000443
     20          1           0        0.191006    3.156531    0.000776
     21          1           0        4.055996    0.648973    0.000404
 ---------------------------------------------------------------------

 SCF Done:  E(RwB97XD) =  -610.771991322     A.U. after    1 cycles

 The electronic state is 1-A.
 Alpha  occ. eigenvalues --  -19.51331 -19.50701 -19.48784 -19.48335 -10.59795
 Alpha  occ. eigenvalues --  -10.57351 -10.56558 -10.56226 -10.49739 -10.47591
 Alpha  occ. eigenvalues --  -10.46325 -10.44935  -1.39188  -1.36647  -1.35708
 Alpha  occ. eigenvalues --   -1.35157  -1.13673  -1.06611  -1.02596  -1.01178
 Alpha  occ. eigenvalues --   -0.93221  -0.91470  -0.89140  -0.85808  -0.83351
 Alpha  occ. eigenvalues --   -0.81161  -0.77173  -0.75003  -0.72865  -0.70825
 Alpha  occ. eigenvalues --   -0.70271  -0.69763  -0.69155  -0.67647  -0.66201
 Alpha  occ. eigenvalues --   -0.65802  -0.64280  -0.62350  -0.62323  -0.60510
 Alpha  occ. eigenvalues --   -0.59991  -0.55977  -0.48620  -0.47701
 Alpha virt. eigenvalues --   -0.17990  -0.09360  -0.07755  -0.06249  -0.05772
 Alpha virt. eigenvalues --   -0.05473  -0.04050  -0.02069  -0.01736  -0.01037
 Alpha virt. eigenvalues --   -0.00558   0.00339   0.01551   0.02155   0.02350

 Mulliken charges:
               1
     1  C    1.066377
     2  C   -0.863597
     3  C    0.824432
     4  C   -0.997281
     5  C    2.046656
     6  C   -2.118386
     7  O   -0.521309
     8  C    0.433934
     9  C   -0.168471
    10  O   -0.377890
    11  O   -0.618546
    12  O   -0.466874
    13  H    0.190601
    14  H    0.166178
    15  H    0.424052
    16  H    0.227504
    17  H    0.227469
    18  H    0.222493
    19  H    0.466509
    20  H    0.440781
    21  H    0.395369
 Sum of Mulliken charges =   1.00000

 Dipole moment (field-independent basis, Debye):
    X=              1.4808    Y=              1.7197    Z=              0.0022  Tot=              2.2694
 Quadrupole moment (field-independent basis, Debye-Ang):
   XX=            -42.4902   YY=            -35.9985   ZZ=            -69.4061
   XY=              8.8695   XZ=              0.0001   YZ=              0.0095

  Exact polarizability: 158.270   1.698 112.998  -0.000   0.008  55.117
 Approx polarizability: 165.798  -1.880 128.113   0.004   0.009  66.121

                      1                      2                      3
                      A                      A                      A
 Frequencies --     34.6944                90.0479               140.9260
 Red. masses --      3.1196                 5.5769                 1.2105
 Frc consts  --      0.0022                 0.0266                 0.0142
 IR Inten    --      0.0471                 0.1709                 4.1072

                      4                      5                      6
                      A                      A                      A
 Frequencies --    204.0794               214.6323               267.3116
 Red. masses --      6.2838                 4.1659                 4.6707
 Frc consts  --      0.1542                 0.1131                 0.1966
 IR Inten    --      0.0584                 2.1512                 1.3432

                      7                      8                      9
                      A                      A                      A
 Frequencies --    282.1618               352.9097               361.7784
 Red. masses --      3.3024                 5.4703                 1.1721
 Frc consts  --      0.1549                 0.4014                 0.0904
 IR Inten    --     32.0830                13.5951               105.9237

                     10                     11                     12
                      A                      A                      A
 Frequencies --    375.0000               404.3822               428.6403
 Red. masses --      4.9100                 4.9591                 5.7556
 Frc consts  --      0.4068                 0.4778                 0.6231
 IR Inten    --      5.2447                 5.9092                 5.9099

                     13                     14                     15
                      A                      A                      A
 Frequencies --    460.8359               477.3264               530.6877
 Red. masses --      1.1248                 1.1180                 7.1339
 Frc consts  --      0.1407                 0.1501                 1.1837
 IR Inten    --     30.5134               187.8171                 4.8439

                     16                     17                     18
                      A                      A                      A
 Frequencies --    547.6980               573.5132               617.6834
 Red. masses --      3.9494                 2.5827                 7.9151
 Frc consts  --      0.6980                 0.5005                 1.7792
 IR Inten    --      9.4040                 0.6282                 0.3626

                     19                     20                     21
                      A                      A                      A
 Frequencies --    633.8827               654.8209               660.4912
 Red. masses --      3.3708                 3.4972                 2.8750
 Frc consts  --      0.7980                 0.8835                 0.7390
 IR Inten    --      9.9281                29.8858                25.0469

                     22                     23                     24
                      A                      A                      A
 Frequencies --    723.5086               732.5681               818.5000
 Red. masses --      4.2519                 5.3990                 1.6589
 Frc consts  --      1.3114                 1.7071                 0.6548
 IR Inten    --      4.0740                 2.0476                61.8709

                     25                     26                     27
                      A                      A                      A
 Frequencies --    837.6047               845.9968               991.2052
 Red. masses --      1.2647                 1.5517                 2.0822
 Frc consts  --      0.5228                 0.6543                 1.2053
 IR Inten    --    145.0630                 5.6799                36.0260

                     28                     29                     30
                      A                      A                      A
 Frequencies --   1048.0768              1051.7999              1092.1799
 Red. masses --      3.3168                 1.7184                 2.2112
 Frc consts  --      2.1466                 1.1201                 1.5540
 IR Inten    --      4.6058                 0.7010                52.7484

                     31                     32                     33
                      A                      A                      A
 Frequencies --   1108.9139              1189.5851              1202.8130
 Red. masses --      3.3627                 1.2611                 1.2199
 Frc consts  --      2.4363                 1.0515                 1.0398
 IR Inten    --     93.0979                95.4413                49.2992

                     34                     35                     36
                      A                      A                      A
 Frequencies --   1233.8019              1272.4043              1313.3370
 Red. masses --      1.5390                 2.5460                 2.0204
 Frc consts  --      1.3803                 2.4286                 2.0532
 IR Inten    --    120.7780                59.7403                35.4379

                     37                     38                     39
                      A                      A                      A
 Frequencies --   1330.1037              1393.8104              1410.9420
 Red. masses --      1.9289                 1.1601                 2.8406
 Frc consts  --      2.0106                 1.3278                 3.3318
 IR Inten    --    220.7180                96.9164               270.6178

                     40                     41                     42
                      A                      A                      A
 Frequencies --   1437.2304              1457.6936              1464.1435
 Red. masses --      1.7326                 3.2975                 1.0424
 Frc consts  --      2.1087                 4.1283                 1.3166
 IR Inten    --     31.1264                82.8266                19.9737

                     43                     44                     45
                      A                      A                      A
 Frequencies --   1500.1609              1542.6555              1579.9010
 Red. masses --      2.3581                 3.0222                 5.1355
 Frc consts  --      3.1267                 4.2375                 7.5526
 IR Inten    --    450.0297               328.5389               225.1561

                     46                     47                     48
                      A                      A                      A
 Frequencies --   1600.0171              1641.9828              1714.5119
 Red. masses --      3.7400                 5.8848                 6.9370
 Frc consts  --      5.6412                 9.3480                12.0145
 IR Inten    --    185.9837               252.8176               914.8727

                     49                     50                     51
                      A                      A                      A
 Frequencies --   3095.0913              3174.0022              3216.8026
 Red. masses --      1.0365                 1.0995                 1.1064
 Frc consts  --      5.8499                 6.5261                 6.7455
 IR Inten    --     11.7159                 1.5430                 5.4674

                     52                     53                     54
                      A                      A                      A
 Frequencies --   3219.1975              3248.0134              3566.8575
 Red. masses --      1.0938                 1.0940                 1.0670
 Frc consts  --      6.6786                 6.7998                 7.9982
 IR Inten    --      0.0774                 3.0911               285.5579

                     55                     56                     57
                      A                      A                      A
 Frequencies --   3877.4051              3884.0564              3887.4217
 Red. masses --      1.0667                 1.0670                 1.0672
 Frc consts  --      9.4486                 9.4837                 9.5017
 IR Inten    --    187.0198               113.0216               257.6609

 - Thermochemistry -
 -------------------
 Temperature   298.150 Kelvin.  Pressure   1.00000 Atm.
 Atom     1 has atomic number  6 and mass  12.00000

 Molecular mass:   169.05008 amu.
 Principal axes and moments of inertia in atomic units:
                           1         2         3
     Eigenvalues --  1179.119492367.559953535.62718
           X            0.99943   0.03371   0.00004
           Y           -0.03371   0.99943  -0.00008
           Z           -0.00004   0.00008   1.00000
 This molecule is an asymmetric top.
 Rotational symmetry number  1.
 Warning -- assumption of classical behavior for rotation
           may cause significant error
 Rotational temperatures (Kelvin)      0.07346     0.03658     0.02450
 Rotational constants (GHZ):           1.53058     0.76228     0.51044
 Zero-point vibrational energy     436743.4 (Joules/Mol)
                                  104.38418 (Kcal/Mol)
 Warning -- explicit consideration of  18 degrees of freedom as
           vibrations may cause significant error
 Vibrational temperatures:     49.92   129.56   202.76   293.62   308.81
          (Kelvin)            384.60   405.97   507.76   520.52   539.54
                              581.82   616.72   663.04   686.77   763.54
                              788.01   825.16   888.71   912.01   942.14
                              950.30  1040.97  1054.00  1177.64  1205.12
                             1217.20  1426.12  1507.95  1513.30  1571.40
                             1595.48  1711.55  1730.58  1775.16  1830.70
                             1889.60  1913.72  2005.38  2030.03  2067.85
                             2097.29  2106.57  2158.39  2219.53  2273.12
                             2302.06  2362.44  2466.80  4453.14  4566.68
                             4628.26  4631.70  4673.16  5131.91  5578.71
                             5588.28  5593.13

 Zero-point correction=                           0.166347 (Hartree/Particle)
 Thermal correction to Energy=                    0.177401
 Thermal correction to Enthalpy=                  0.178345
 Thermal correction to Gibbs Free Energy=         0.129521
 Sum of electronic and zero-point Energies=           -610.605645
 Sum of electronic and thermal Energies=              -610.594591
 Sum of electronic and thermal Enthalpies=            -610.593646
 Sum of electronic and thermal Free Energies=         -610.642471

                     E (Thermal)             CV                S
                      KCal/Mol        Cal/Mol-Kelvin    Cal/Mol-Kelvin
 Total                  111.321             43.030            102.759
 Electronic               0.000              0.000              0.000
 Translational            0.889              2.981             41.283
 Rotational               0.889              2.981             30.668
 Vibrational            109.543             37.069             30.807
 Vibration     1          0.594              1.983              5.541
 Vibration     2          0.602              1.956              3.659
 Vibration     3          0.615              1.912              2.791
 Vibration     4          0.640              1.834              2.096
 Vibration     5          0.645              1.819              2.004
 Vibration     6          0.672              1.733              1.614
 Vibration     7          0.681              1.707              1.521
 Vibration     8          0.729              1.569              1.153
 Vibration     9          0.736              1.551              1.114
 Vibration    10          0.746              1.523              1.059
 Vibration    11          0.770              1.461              0.947
 Vibration    12          0.790              1.408              0.863
 Vibration    13          0.819              1.337              0.764
 Vibration    14          0.834              1.300              0.717
 Vibration    15          0.886              1.182              0.586
 Vibration    16          0.903              1.145              0.549
 Vibration    17          0.930              1.089              0.498
 Vibration    18          0.977              0.995              0.420

 Optimization completed.
    -- Stationary point found.
 Normal termination of Gaussian 09 at Sun Jun 16 16:31:23 2024.
