 Gaussian 09, Revision E.01,
 Gaussian 09:  ES64L-G09RevE.01 30-Nov-2015

 -----------------------------
 # opt freq wb97xd/6-31+g(d,p)
 -----------------------------

 ----------
 [No Title]
 ----------
 Symbolic Z-matrix:
 Charge =  0 Multiplicity = 1

 SCF Done:  E(RwB97XD) =  -610.415886017     A.U. after   16 cycles
 SCF Done:  E(RwB97XD) =  -610.416281468     A.U. after   13 cycles
 SCF Done:  E(RwB97XD) =  -610.416245159     A.U. after   13 cycles
 SCF Done:  E(RwB97XD) =  -610.416307151     A.U. after    7 cycles
 SCF Done:  E(RwB97XD) =  -610.416324910     A.U. after   12 cycles
 SCF Done:  E(RwB97XD) =  -610.416325604     A.U. after   12 cycles
 SCF Done:  E(RwB97XD) =  -610.416328123     A.U. after   11 cycles
 SCF Done:  E(RwB97XD) =  -610.416331947     A.U. after   11 cycles
 Optimization completed.
    -- Stationary point found.
 Normal termination of Gaussian 09 at Sun Jun 16 16:10:50 2024.

 ----------------------------------------------------------------------
 #N Geom=AllCheck Guess=TCheck SCRF=Check GenChk RwB97XD/6-31+G(d,p) Fr
 eq
 ----------------------------------------------------------------------

 Structure from the checkpoint file:  "WB97XDTHAP.chk"
 ----------
 [No Title]
 ----------
 Charge =  0 Multiplicity = 1

                         Standard orientation:
 ---------------------------------------------------------------------
 Center     Atomic      Atomic             Coordinates (Angstroms)
 Number     Number       Type             X           Y           Z
 ---------------------------------------------------------------------
      1          6           0        1.522395    1.250067   -0.000064
      2          6           0        2.257109    0.060578   -0.000038
      3          6           0        1.625433   -1.172692    0.000027
      4          6           0        0.229558   -1.226871    0.000059
      5          6           0       -0.565872   -0.039414    0.000046
      6          6           0        0.138845    1.192624   -0.000027
      7          8           0       -0.579650    2.343916   -0.000043
      8          6           0       -2.029370   -0.170361    0.000097
      9          6           0       -2.952733    1.020015   -0.000032
     10          8           0       -2.548447   -1.298139    0.000052
     11          8           0       -0.322938   -2.434980    0.000082
     12          8           0        3.603918    0.185440   -0.000082
     13          1           0        2.049164    2.198732   -0.000117
     14          1           0        2.178607   -2.106011    0.000042
     15          1           0        0.020858    3.095201   -0.000150
     16          1           0       -2.777458    1.647656   -0.876812
     17          1           0       -3.976316    0.645043   -0.000083
     18          1           0       -2.777586    1.647748    0.876705
     19          1           0       -1.308415   -2.297799    0.000037
     20          1           0        4.015895   -0.684151   -0.000107
 ---------------------------------------------------------------------

 SCF Done:  E(RwB97XD) =  -610.416331947     A.U. after    1 cycles

 The electronic state is 1-A.
 Alpha  occ. eigenvalues --  -19.33729 -19.33391 -19.30017 -19.27757 -10.40883
 Alpha  occ. eigenvalues --  -10.40102 -10.39615 -10.39273 -10.32066 -10.31100
 Alpha  occ. eigenvalues --  -10.30585 -10.29935  -1.20103  -1.19560  -1.18259
 Alpha  occ. eigenvalues --   -1.14613  -0.96796  -0.88504  -0.85878  -0.83652
 Alpha  occ. eigenvalues --   -0.75904  -0.74025  -0.69765  -0.67541  -0.61867
 Alpha  occ. eigenvalues --   -0.61327  -0.59950  -0.57584  -0.55610  -0.53729
 Alpha  occ. eigenvalues --   -0.52608  -0.52529  -0.50824  -0.50478  -0.50400
 Alpha  occ. eigenvalues --   -0.49436  -0.47179  -0.45575  -0.45407  -0.44854
 Alpha  occ. eigenvalues --   -0.39196  -0.35055  -0.31970  -0.30833
 Alpha virt. eigenvalues --    0.00970   0.04992   0.05766   0.06280   0.07764
 Alpha virt. eigenvalues --    0.09221   0.09634   0.09847   0.10546   0.10699
 Alpha virt. eigenvalues --    0.11915   0.12149   0.13653   0.14173   0.14769

 Mulliken charges:
               1
     1  C    0.947313
     2  C   -0.691645
     3  C    0.952325
     4  C   -1.171200
     5  C    1.998800
     6  C   -2.033889
     7  O   -0.550169
     8  C    0.481320
     9  C   -0.426995
    10  O   -0.499357
    11  O   -0.549881
    12  O   -0.525740
    13  H    0.144916
    14  H    0.151559
    15  H    0.393170
    16  H    0.188580
    17  H    0.187495
    18  H    0.188577
    19  H    0.441024
    20  H    0.373796
 Sum of Mulliken charges =   0.00000

 Dipole moment (field-independent basis, Debye):
    X=              2.2795    Y=              3.0870    Z=             -0.0004  Tot=              3.8374
 Quadrupole moment (field-independent basis, Debye-Ang):
   XX=            -66.5334   YY=            -65.1967   ZZ=            -71.5542
   XY=             -8.8681   XZ=             -0.0002   YZ=             -0.0003

  Exact polarizability: 148.097   2.296 119.223  -0.002  -0.002  60.225
 Approx polarizability: 149.967   8.129 139.307  -0.002  -0.002  71.101

                      1                      2                      3
                      A                      A                      A
 Frequencies --     69.0240               104.1388               205.9789
 Red. masses --      3.8784                10.4739                 6.5135
 Frc consts  --      0.0109                 0.0669                 0.1628
 IR Inten    --      1.5512                 0.2387                 3.6265

                      4                      5                      6
                      A                      A                      A
 Frequencies --    226.1906               277.1106               284.1393
 Red. masses --      4.7274                 5.0679                 3.9579
 Frc consts  --      0.1425                 0.2293                 0.1883
 IR Inten    --      1.4710                12.1338                 1.7518

                      7                      8                      9
                      A                      A                      A
 Frequencies --    336.5400               344.4191               369.3974
 Red. masses --      1.0758                 5.7376                 6.4932
 Frc consts  --      0.0718                 0.4010                 0.5220
 IR Inten    --      0.0789                 7.6662                 6.5834

                     10                     11                     12
                      A                      A                      A
 Frequencies --    382.7566               390.2436               402.9556
 Red. masses --      4.3497                 1.1526                 1.1251
 Frc consts  --      0.3754                 0.1034                 0.1076
 IR Inten    --      3.8555                 7.1268               201.5529

                     13                     14                     15
                      A                      A                      A
 Frequencies --    440.0610               536.6724               582.1526
 Red. masses --      6.0959                 7.0780                 5.7650
 Frc consts  --      0.6955                 1.2011                 1.1511
 IR Inten    --      4.1534                 9.4940                22.3470

                     16                     17                     18
                      A                      A                      A
 Frequencies --    586.8546               621.2416               636.0390
 Red. masses --      2.7856                 7.7463                 3.1213
 Frc consts  --      0.5652                 1.7614                 0.7440
 IR Inten    --      0.2518                 6.1660                 0.8256

                     19                     20                     21
                      A                      A                      A
 Frequencies --    652.1188               655.0815               720.2017
 Red. masses --      2.7121                 3.9440                 4.0005
 Frc consts  --      0.6795                 0.9972                 1.2226
 IR Inten    --     15.0496                14.2686                14.0917

                     22                     23                     24
                      A                      A                      A
 Frequencies --    736.0509               807.3182               822.6178
 Red. masses --      5.1299                 1.7886                 1.6679
 Frc consts  --      1.6375                 0.6868                 0.6650
 IR Inten    --      0.1672                52.0089                48.8694

                     25                     26                     27
                      A                      A                      A
 Frequencies --    932.3126               993.0647              1048.2961
 Red. masses --      1.0633                 2.2511                 3.2854
 Frc consts  --      0.5446                 1.3080                 2.1272
 IR Inten    --     86.0343                43.0835                 8.5333

                     28                     29                     30
                      A                      A                      A
 Frequencies --   1050.7674              1101.0824              1115.2592
 Red. masses --      1.8400                 2.3051                 4.3463
 Frc consts  --      1.1970                 1.6466                 3.1851
 IR Inten    --      3.7029                30.8270                77.1769

                     31                     32                     33
                      A                      A                      A
 Frequencies --   1196.6687              1221.9301              1250.2558
 Red. masses --      1.3073                 1.3496                 2.1623
 Frc consts  --      1.1030                 1.1873                 1.9915
 IR Inten    --    124.0912                28.3998               218.6293

                     34                     35                     36
                      A                      A                      A
 Frequencies --   1293.4521              1321.5408              1357.2530
 Red. masses --      1.6948                 3.0060                 2.8086
 Frc consts  --      1.6706                 3.0931                 3.0483
 IR Inten    --    232.8556               159.1635                94.3454

                     37                     38                     39
                      A                      A                      A
 Frequencies --   1411.3009              1426.5561              1477.3921
 Red. masses --      1.5713                 2.7644                 1.7856
 Frc consts  --      1.8440                 3.3146                 2.2962
 IR Inten    --    106.8718                 2.7200                41.0545

                     40                     41                     42
                      A                      A                      A
 Frequencies --   1486.5441              1502.7254              1523.4623
 Red. masses --      1.7165                 1.0443                 3.7062
 Frc consts  --      2.2349                 1.3895                 5.0680
 IR Inten    --     12.0064                13.2229               215.3299

                     43                     44                     45
                      A                      A                      A
 Frequencies --   1584.6990              1670.6869              1706.1143
 Red. masses --      2.7031                 4.7645                 7.9112
 Frc consts  --      3.9995                 7.8354                13.5677
 IR Inten    --     71.4965               163.9644               397.0333

                     46                     47                     48
                      A                      A                      A
 Frequencies --   1721.8942              3092.9203              3177.3246
 Red. masses --      5.8647                 1.0349                 1.0994
 Frc consts  --     10.2450                 5.8332                 6.5393
 IR Inten    --    667.3191                 2.2983                 3.5672

                     49                     50                     51
                      A                      A                      A
 Frequencies --   3201.6232              3233.5786              3234.6885
 Red. masses --      1.1068                 1.0925                 1.0925
 Frc consts  --      6.6846                 6.7303                 6.7351
 IR Inten    --      4.8392                 5.2677                 0.8870

                     52                     53                     54
                      A                      A                      A
 Frequencies --   3243.7576              3910.5276              3913.9105
 Red. masses --      1.0706                 1.0663                 1.0663
 Frc consts  --      6.6371                 9.6068                 9.6239
 IR Inten    --    497.5981                99.2237                78.6980

 - Thermochemistry -
 -------------------
 Temperature   298.150 Kelvin.  Pressure   1.00000 Atm.
 Atom     1 has atomic number  6 and mass  12.00000

 Molecular mass:   168.04226 amu.
 Principal axes and moments of inertia in atomic units:
                           1         2         3
     Eigenvalues --  1161.434972351.375113501.74377
           X            0.99941  -0.03433   0.00001
           Y            0.03433   0.99941   0.00003
           Z           -0.00002  -0.00003   1.00000
 This molecule is an asymmetric top.
 Rotational symmetry number  1.
 Warning -- assumption of classical behavior for rotation
           may cause significant error
 Rotational temperatures (Kelvin)      0.07457     0.03684     0.02473
 Rotational constants (GHZ):           1.55389     0.76753     0.51538
 Zero-point vibrational energy     404283.3 (Joules/Mol)
                                   96.62603 (Kcal/Mol)
 Warning -- explicit consideration of  16 degrees of freedom as
           vibrations may cause significant error
 Vibrational temperatures:     99.31   149.83   296.36   325.44   398.70
          (Kelvin)            408.81   484.21   495.54   531.48   550.70
                              561.47   579.76   633.15   772.15   837.59
                              844.35   893.83   915.12   938.25   942.52
                             1036.21  1059.01  1161.55  1183.56  1341.39
                             1428.80  1508.26  1511.82  1584.21  1604.61
                             1721.74  1758.08  1798.84  1860.99  1901.40
                             1952.78  2030.54  2052.49  2125.64  2138.80
                             2162.08  2191.92  2280.03  2403.74  2454.71
                             2477.42  4450.02  4571.46  4606.42  4652.39
                             4653.99  4667.04  5626.37  5631.24

 Zero-point correction=                           0.153983 (Hartree/Particle)
 Thermal correction to Energy=                    0.164367
 Thermal correction to Enthalpy=                  0.165312
 Thermal correction to Gibbs Free Energy=         0.118461
 Sum of electronic and zero-point Energies=           -610.262349
 Sum of electronic and thermal Energies=              -610.251965
 Sum of electronic and thermal Enthalpies=            -610.251020
 Sum of electronic and thermal Free Energies=         -610.297871

                     E (Thermal)             CV                S
                      KCal/Mol        Cal/Mol-Kelvin    Cal/Mol-Kelvin
 Total                  103.142             41.078             98.605
 Electronic               0.000              0.000              0.000
 Translational            0.889              2.981             41.265
 Rotational               0.889              2.981             30.637
 Vibrational            101.365             35.116             26.703
 Vibration     1          0.598              1.969              4.181
 Vibration     2          0.605              1.946              3.375
 Vibration     3          0.640              1.831              2.079
 Vibration     4          0.650              1.801              1.909
 Vibration     5          0.678              1.716              1.551
 Vibration     6          0.683              1.703              1.509
 Vibration     7          0.717              1.603              1.229
 Vibration     8          0.723              1.587              1.192
 Vibration     9          0.742              1.535              1.082
 Vibration    10          0.752              1.507              1.028
 Vibration    11          0.758              1.491              0.999
 Vibration    12          0.768              1.464              0.952
 Vibration    13          0.800              1.383              0.826
 Vibration    14          0.892              1.169              0.572
 Vibration    15          0.939              1.070              0.481
 Vibration    16          0.944              1.060              0.473

 Optimization completed.
    -- Stationary point found.
 Normal termination of Gaussian 09 at Sun Jun 16 16:14:57 2024.
