 Gaussian 09, Revision E.01,
 Gaussian 09:  ES64L-G09RevE.01 30-Nov-2015

 -----------------------------
 # opt freq 6-311+g(d,p) m062x
 -----------------------------

 ----------
 [No Title]
 ----------
 Symbolic Z-matrix:
 Charge =  1 Multiplicity = 1

 SCF Done:  E(RM062X) =  -571.502252001     A.U. after   15 cycles
 SCF Done:  E(RM062X) =  -571.502423053     A.U. after   12 cycles
 SCF Done:  E(RM062X) =  -571.502427753     A.U. after   11 cycles
 SCF Done:  E(RM062X) =  -571.502419945     A.U. after   12 cycles
 SCF Done:  E(RM062X) =  -571.502430926     A.U. after   11 cycles
 Optimization completed.
    -- Stationary point found.
 Normal termination of Gaussian 09 at Tue Feb 27 13:24:17 2024.

 ----------------------------------------------------------------------
 #N Geom=AllCheck Guess=TCheck SCRF=Check GenChk RM062X/6-311+G(d,p) Fr
 eq
 ----------------------------------------------------------------------

 Structure from the checkpoint file:  "lwm06311DHBYang.chk"
 ----------
 [No Title]
 ----------
 Charge =  1 Multiplicity = 1

                         Standard orientation:
 ---------------------------------------------------------------------
 Center     Atomic      Atomic             Coordinates (Angstroms)
 Number     Number       Type             X           Y           Z
 ---------------------------------------------------------------------
      1          6           0        0.320150    1.284587   -0.000053
      2          6           0        0.504253   -0.115772   -0.000046
      3          6           0       -0.612099   -0.948703   -0.000001
      4          6           0       -1.853953   -0.362384    0.000027
      5          6           0       -2.090649    0.996587    0.000018
      6          6           0       -0.980235    1.818658   -0.000022
      7          8           0       -3.049465   -1.231023    0.000071
      8          6           0        1.873496   -0.731197   -0.000094
      9          8           0        1.788478   -2.076725    0.000153
     10          8           0        2.902187   -0.131865   -0.000053
     11          8           0        1.390854    2.067304   -0.000086
     12          1           0       -0.472015   -2.023601    0.000007
     13          1           0       -3.096114    1.398632    0.000043
     14          1           0       -1.113901    2.894422   -0.000028
     15          1           0       -3.190631   -1.755836   -0.808978
     16          1           0       -3.190583   -1.755820    0.809140
     17          1           0        2.689049   -2.431124    0.000242
     18          1           0        1.151979    3.001160   -0.000087
 ---------------------------------------------------------------------

 SCF Done:  E(RM062X) =  -571.502430926     A.U. after    1 cycles

 The electronic state is 1-A.
 Alpha  occ. eigenvalues --  -19.98676 -19.80721 -19.79367 -19.74136 -10.81156
 Alpha  occ. eigenvalues --  -10.80600 -10.78927 -10.74008 -10.73989 -10.72715
 Alpha  occ. eigenvalues --  -10.71949  -1.50385  -1.36822  -1.35333  -1.27308
 Alpha  occ. eigenvalues --   -1.15700  -1.05115  -1.03605  -0.96072  -0.92939
 Alpha  occ. eigenvalues --   -0.91754  -0.87130  -0.81302  -0.79849  -0.77489
 Alpha  occ. eigenvalues --   -0.71708  -0.71412  -0.70352  -0.68197  -0.68106
 Alpha  occ. eigenvalues --   -0.66755  -0.64669  -0.62274  -0.60885  -0.60019
 Alpha  occ. eigenvalues --   -0.58825  -0.52442  -0.49262  -0.48192  -0.45728
 Alpha virt. eigenvalues --   -0.19120  -0.17747  -0.15164  -0.11106  -0.10896
 Alpha virt. eigenvalues --   -0.10374  -0.09084  -0.08281  -0.06837  -0.05855
 Alpha virt. eigenvalues --   -0.05431  -0.05385  -0.04008  -0.03567  -0.02828

 Mulliken charges:
               1
     1  C   -1.209177
     2  C    1.054790
     3  C   -0.456877
     4  C   -0.326735
     5  C    0.275880
     6  C    0.184306
     7  O   -0.202665
     8  C    0.284360
     9  O   -0.248768
    10  O   -0.226673
    11  O   -0.137388
    12  H    0.220492
    13  H    0.206989
    14  H    0.184068
    15  H    0.392935
    16  H    0.392933
    17  H    0.325945
    18  H    0.285586
 Sum of Mulliken charges =   1.00000

 Dipole moment (field-independent basis, Debye):
    X=            -11.3611    Y=             -3.3447    Z=              0.0003  Tot=             11.8433
 Quadrupole moment (field-independent basis, Debye-Ang):
   XX=            -27.8902   YY=            -29.4394   ZZ=            -60.3252
   XY=              9.8944   XZ=             -0.0001   YZ=             -0.0010

  Exact polarizability: 115.504   2.794 102.406  -0.001  -0.002  49.059
 Approx polarizability: 143.722   9.812 131.875  -0.001  -0.002  65.327

                      1                      2                      3
                      A                      A                      A
 Frequencies --     33.8135               116.0223               163.5341
 Red. masses --     11.1600                 4.6367                 4.6395
 Frc consts  --      0.0075                 0.0368                 0.0731
 IR Inten    --      0.3424                 1.2132                13.8875

                      4                      5                      6
                      A                      A                      A
 Frequencies --    202.2520               227.9362               323.1801
 Red. masses --      6.2265                 1.0671                 5.4944
 Frc consts  --      0.1501                 0.0327                 0.3381
 IR Inten    --      3.5339                50.0103                21.4475

                      7                      8                      9
                      A                      A                      A
 Frequencies --    338.0796               388.6055               401.6916
 Red. masses --      4.1507                 4.9232                 9.4276
 Frc consts  --      0.2795                 0.4380                 0.8963
 IR Inten    --      0.0110                12.1059                 2.8275

                     10                     11                     12
                      A                      A                      A
 Frequencies --    407.2323               439.2782               468.6630
 Red. masses --      1.1491                 2.9462                 7.7596
 Frc consts  --      0.1123                 0.3350                 1.0042
 IR Inten    --    105.6037                 0.0004                 1.5629

                     13                     14                     15
                      A                      A                      A
 Frequencies --    528.0754               547.8791               590.4136
 Red. masses --      3.0225                 3.6571                 1.2669
 Frc consts  --      0.4966                 0.6468                 0.2602
 IR Inten    --     12.6561                44.4211               119.0056

                     16                     17                     18
                      A                      A                      A
 Frequencies --    604.1587               667.1852               685.9279
 Red. masses --      1.3800                 5.4477                 4.0634
 Frc consts  --      0.2968                 1.4287                 1.1264
 IR Inten    --    243.9858                49.8551                24.1127

                     19                     20                     21
                      A                      A                      A
 Frequencies --    716.6639               801.0396               805.6372
 Red. masses --      5.0312                 3.6035                 5.0633
 Frc consts  --      1.5225                 1.3623                 1.9363
 IR Inten    --     35.1076                 7.4860                16.1901

                     22                     23                     24
                      A                      A                      A
 Frequencies --    836.7990               898.7462               924.0458
 Red. masses --      1.7713                 6.6316                 1.3642
 Frc consts  --      0.7308                 3.1560                 0.6863
 IR Inten    --     60.1175                 4.8722                 7.2042

                     25                     26                     27
                      A                      A                      A
 Frequencies --    971.2210              1064.2289              1083.8485
 Red. masses --      1.3199                 1.2417                 2.9889
 Frc consts  --      0.7336                 0.8286                 2.0687
 IR Inten    --      0.6972                 8.3246                85.4920

                     28                     29                     30
                      A                      A                      A
 Frequencies --   1140.4253              1163.8979              1185.9435
 Red. masses --      2.1371                 1.6873                 1.3521
 Frc consts  --      1.6376                 1.3467                 1.1204
 IR Inten    --     62.1223                43.2921                86.8962

                     31                     32                     33
                      A                      A                      A
 Frequencies --   1214.6006              1312.6978              1350.7500
 Red. masses --      1.7152                 1.3922                 3.0334
 Frc consts  --      1.4908                 1.4134                 3.2608
 IR Inten    --    209.6187                81.4039                80.2084

                     34                     35                     36
                      A                      A                      A
 Frequencies --   1372.1663              1394.5270              1480.5269
 Red. masses --      3.3782                 4.0764                 4.7493
 Frc consts  --      3.7475                 4.6707                 6.1336
 IR Inten    --     34.0284                78.1015                90.0675

                     37                     38                     39
                      A                      A                      A
 Frequencies --   1552.3878              1648.9543              1657.7037
 Red. masses --      3.2614                 2.0043                 2.5681
 Frc consts  --      4.6308                 3.2109                 4.1580
 IR Inten    --    124.7220                27.0265               115.4458

                     40                     41                     42
                      A                      A                      A
 Frequencies --   1698.7635              1909.8819              3200.5454
 Red. masses --      3.4193                11.2857                 1.0910
 Frc consts  --      5.8137                24.2544                 6.5845
 IR Inten    --     31.8817               386.9832                 0.3056

                     43                     44                     45
                      A                      A                      A
 Frequencies --   3210.6228              3214.8398              3665.9549
 Red. masses --      1.0941                 1.0982                 1.0408
 Frc consts  --      6.6451                 6.6874                 8.2410
 IR Inten    --     17.6554                12.0140               310.7085

                     46                     47                     48
                      A                      A                      A
 Frequencies --   3751.7782              3822.0888              3867.7724
 Red. masses --      1.0920                 1.0653                 1.0668
 Frc consts  --      9.0563                 9.1690                 9.4029
 IR Inten    --    361.4906               198.8158               163.7168

 - Thermochemistry -
 -------------------
 Temperature   298.150 Kelvin.  Pressure   1.00000 Atm.
 Atom     1 has atomic number  6 and mass  12.00000

 Molecular mass:   155.03443 amu.
 Principal axes and moments of inertia in atomic units:
                           1         2         3
     Eigenvalues --  1033.176182010.389063034.14194
           X            0.99998   0.00569   0.00001
           Y           -0.00569   0.99998   0.00004
           Z           -0.00001  -0.00004   1.00000
 This molecule is an asymmetric top.
 Rotational symmetry number  1.
 Warning -- assumption of classical behavior for rotation
           may cause significant error
 Rotational temperatures (Kelvin)      0.08383     0.04308     0.02855
 Rotational constants (GHZ):           1.74679     0.89771     0.59481
 Zero-point vibrational energy     359196.6 (Joules/Mol)
                                   85.85005 (Kcal/Mol)
 Warning -- explicit consideration of  16 degrees of freedom as
           vibrations may cause significant error
 Vibrational temperatures:     48.65   166.93   235.29   291.00   327.95
          (Kelvin)            464.98   486.42   559.12   577.94   585.92
                              632.02   674.30   759.78   788.27   849.47
                              869.25   959.93   986.90  1031.12  1152.52
                             1159.13  1203.97  1293.09  1329.49  1397.37
                             1531.19  1559.41  1640.82  1674.59  1706.31
                             1747.54  1888.68  1943.43  1974.24  2006.41
                             2130.15  2233.54  2372.47  2385.06  2444.14
                             2747.89  4604.87  4619.36  4625.43  5274.48
                             5397.97  5499.13  5564.85

 Zero-point correction=                           0.136811 (Hartree/Particle)
 Thermal correction to Energy=                    0.146751
 Thermal correction to Enthalpy=                  0.147695
 Thermal correction to Gibbs Free Energy=         0.101169
 Sum of electronic and zero-point Energies=           -571.365620
 Sum of electronic and thermal Energies=              -571.355680
 Sum of electronic and thermal Enthalpies=            -571.354736
 Sum of electronic and thermal Free Energies=         -571.401262

                     E (Thermal)             CV                S
                      KCal/Mol        Cal/Mol-Kelvin    Cal/Mol-Kelvin
 Total                   92.088             38.235             97.923
 Electronic               0.000              0.000              0.000
 Translational            0.889              2.981             41.025
 Rotational               0.889              2.981             30.223
 Vibrational             90.310             32.273             26.676
 Vibration     1          0.594              1.983              5.592
 Vibration     2          0.608              1.936              3.166
 Vibration     3          0.623              1.887              2.509
 Vibration     4          0.639              1.837              2.113
 Vibration     5          0.651              1.798              1.895
 Vibration     6          0.708              1.629              1.294
 Vibration     7          0.718              1.599              1.221
 Vibration     8          0.757              1.495              1.005
 Vibration     9          0.767              1.466              0.956
 Vibration    10          0.772              1.455              0.936
 Vibration    11          0.799              1.385              0.829
 Vibration    12          0.826              1.320              0.741
 Vibration    13          0.883              1.188              0.592
 Vibration    14          0.903              1.144              0.549
 Vibration    15          0.948              1.052              0.466
 Vibration    16          0.963              1.023              0.443

 Optimization completed.
    -- Stationary point found.
 Normal termination of Gaussian 09 at Tue Feb 27 13:27:02 2024.
