 Gaussian 09, Revision E.01,
 Gaussian 09:  ES64L-G09RevE.01 30-Nov-2015

 -----------------------------
 # opt freq 6-311+g(d,p) m062x
 -----------------------------

 ----------
 [No Title]
 ----------
 Symbolic Z-matrix:
 Charge =  0 Multiplicity = 1

 SCF Done:  E(RM062X) =  -571.210962649     A.U. after   15 cycles
 SCF Done:  E(RM062X) =  -571.211119889     A.U. after   11 cycles
 SCF Done:  E(RM062X) =  -571.211125266     A.U. after   11 cycles
 SCF Done:  E(RM062X) =  -571.211117983     A.U. after   11 cycles
 SCF Done:  E(RM062X) =  -571.211127293     A.U. after   11 cycles
 Optimization completed.
    -- Stationary point found.
 Normal termination of Gaussian 09 at Mon Feb 26 14:52:26 2024.

 ----------------------------------------------------------------------
 #N Geom=AllCheck Guess=TCheck SCRF=Check GenChk RM062X/6-311+G(d,p) Fr
 eq
 ----------------------------------------------------------------------

 Structure from the checkpoint file:  "lwm06311DHB.chk"
 ----------
 [No Title]
 ----------
 Charge =  0 Multiplicity = 1

                         Standard orientation:
 ---------------------------------------------------------------------
 Center     Atomic      Atomic             Coordinates (Angstroms)
 Number     Number       Type             X           Y           Z
 ---------------------------------------------------------------------
      1          6           0        0.233273    1.269037    0.000024
      2          6           0        0.461774   -0.117405    0.000057
      3          6           0       -0.625734   -0.993036    0.000055
      4          6           0       -1.928037   -0.519002    0.000006
      5          6           0       -2.153645    0.853301   -0.000031
      6          6           0       -1.080774    1.732890   -0.000015
      7          8           0       -2.935650   -1.440125   -0.000015
      8          6           0        1.844981   -0.670219    0.000096
      9          8           0        1.844698   -2.024901    0.000044
     10          8           0        2.865660   -0.042240   -0.000217
     11          8           0        1.280622    2.125968    0.000043
     12          1           0       -0.456174   -2.061032    0.000090
     13          1           0       -3.167096    1.241967   -0.000073
     14          1           0       -1.265162    2.802338   -0.000038
     15          1           0       -3.787227   -0.996604    0.000109
     16          1           0        2.770770   -2.298351   -0.000121
     17          1           0        0.951231    3.028670    0.000039
 ---------------------------------------------------------------------

 SCF Done:  E(RM062X) =  -571.211127293     A.U. after    1 cycles

 The electronic state is 1-A.
 Alpha  occ. eigenvalues --  -19.66774 -19.66267 -19.66241 -19.61413 -10.68178
 Alpha  occ. eigenvalues --  -10.62587 -10.61598 -10.57145 -10.56936 -10.56478
 Alpha  occ. eigenvalues --  -10.55890  -1.24038  -1.20216  -1.19798  -1.14251
 Alpha  occ. eigenvalues --   -0.97908  -0.88538  -0.85168  -0.76761  -0.73350
 Alpha  occ. eigenvalues --   -0.69846  -0.64527  -0.63352  -0.59081  -0.57490
 Alpha  occ. eigenvalues --   -0.56572  -0.54420  -0.52955  -0.50981  -0.50310
 Alpha  occ. eigenvalues --   -0.49930  -0.48957  -0.47471  -0.45093  -0.43158
 Alpha  occ. eigenvalues --   -0.40098  -0.39779  -0.35350  -0.33228  -0.27679
 Alpha virt. eigenvalues --   -0.02699  -0.00193   0.00716   0.01930   0.02336
 Alpha virt. eigenvalues --    0.03057   0.04981   0.05277   0.05674   0.06884
 Alpha virt. eigenvalues --    0.07644   0.07988   0.08215   0.09756   0.09825

 Mulliken charges:
               1
     1  C   -1.222563
     2  C    1.079786
     3  C   -0.035915
     4  C   -0.634587
     5  C    0.145264
     6  C    0.102830
     7  O   -0.265266
     8  C    0.259879
     9  O   -0.234955
    10  O   -0.286346
    11  O   -0.194290
    12  H    0.189896
    13  H    0.146127
    14  H    0.140766
    15  H    0.255427
    16  H    0.296646
    17  H    0.257301
 Sum of Mulliken charges =  -0.00000

 Dipole moment (field-independent basis, Debye):
    X=             -3.6071    Y=              1.7559    Z=              0.0004  Tot=              4.0118
 Quadrupole moment (field-independent basis, Debye-Ang):
   XX=            -57.9619   YY=            -53.1812   ZZ=            -65.7561
   XY=            -10.6111   XZ=              0.0000   YZ=              0.0003

  Exact polarizability: 122.848   0.292 106.514  -0.001  -0.001  50.579
 Approx polarizability: 149.311   5.901 138.392  -0.002  -0.002  66.374

                      1                      2                      3
                      A                      A                      A
 Frequencies --     23.7140               120.5873               169.5617
 Red. masses --     11.5483                 5.4006                 5.1890
 Frc consts  --      0.0038                 0.0463                 0.0879
 IR Inten    --      2.0825                 3.1529                 4.2016

                      4                      5                      6
                      A                      A                      A
 Frequencies --    207.9646               263.4937               292.0787
 Red. masses --      7.6799                 1.0764                 1.1287
 Frc consts  --      0.1957                 0.0440                 0.0567
 IR Inten    --      2.9478                86.2568               130.5845

                      7                      8                      9
                      A                      A                      A
 Frequencies --    332.6572               375.9799               400.2145
 Red. masses --      6.9027                 6.5727                 9.7639
 Frc consts  --      0.4501                 0.5474                 0.9214
 IR Inten    --      0.5904                 0.0080                 3.1836

                     10                     11                     12
                      A                      A                      A
 Frequencies --    408.8397               433.1599               487.8793
 Red. masses --      6.2397                 2.9346                 7.9721
 Frc consts  --      0.6145                 0.3244                 1.1180
 IR Inten    --      1.1275                 6.2804                 1.0757

                     13                     14                     15
                      A                      A                      A
 Frequencies --    541.8840               552.3576               577.7610
 Red. masses --      1.7275                 4.0570                 1.7457
 Frc consts  --      0.2989                 0.7293                 0.3433
 IR Inten    --     11.1064                34.7429               108.0093

                     16                     17                     18
                      A                      A                      A
 Frequencies --    676.3912               682.3522               744.7502
 Red. masses --      5.2109                 4.9594                 5.2022
 Frc consts  --      1.4046                 1.3605                 1.7000
 IR Inten    --     42.2998                10.6992                32.2334

                     19                     20                     21
                      A                      A                      A
 Frequencies --    808.6662               811.9762               831.3949
 Red. masses --      3.3154                 5.8789                 2.0603
 Frc consts  --      1.2774                 2.2837                 0.8391
 IR Inten    --      2.4572                51.2223                69.0503

                     22                     23                     24
                      A                      A                      A
 Frequencies --    917.6364               952.4904               972.0141
 Red. masses --      1.3598                 1.3616                 5.2343
 Frc consts  --      0.6746                 0.7278                 2.9138
 IR Inten    --      7.2315                 4.9880                12.1774

                     25                     26                     27
                      A                      A                      A
 Frequencies --   1085.3110              1169.7419              1185.6606
 Red. masses --      3.3247                 1.5983                 1.5252
 Frc consts  --      2.3073                 1.2885                 1.2632
 IR Inten    --     89.7544                31.2657               180.5531

                     28                     29                     30
                      A                      A                      A
 Frequencies --   1207.2116              1220.8991              1291.1604
 Red. masses --      1.3992                 1.2530                 1.9916
 Frc consts  --      1.2014                 1.1005                 1.9562
 IR Inten    --    245.0256               132.0849                34.2515

                     31                     32                     33
                      A                      A                      A
 Frequencies --   1330.5410              1341.1892              1361.4298
 Red. masses --      9.6039                 1.4928                 2.6080
 Frc consts  --     10.0174                 1.5821                 2.8480
 IR Inten    --      4.5730               244.0179                72.9215

                     34                     35                     36
                      A                      A                      A
 Frequencies --   1391.7958              1508.0598              1562.6462
 Red. masses --      3.6949                 3.5262                 3.3154
 Frc consts  --      4.2171                 4.7249                 4.7698
 IR Inten    --     73.7585                30.6726               208.7866

                     37                     38                     39
                      A                      A                      A
 Frequencies --   1680.5947              1711.3151              1871.8813
 Red. masses --      6.9043                 6.8622                10.5640
 Frc consts  --     11.4894                11.8406                21.8089
 IR Inten    --     56.3691                 4.5526               435.4483

                     40                     41                     42
                      A                      A                      A
 Frequencies --   3172.6845              3188.1179              3237.0032
 Red. masses --      1.0883                 1.0962                 1.0919
 Frc consts  --      6.4542                 6.5645                 6.7411
 IR Inten    --     10.0991                 2.7472                 5.6316

                     43                     44                     45
                      A                      A                      A
 Frequencies --   3854.0272              3909.1789              3923.0205
 Red. masses --      1.0650                 1.0663                 1.0665
 Frc consts  --      9.3201                 9.6006                 9.6706
 IR Inten    --    130.7463                83.2360                87.0421

 - Thermochemistry -
 -------------------
 Temperature   298.150 Kelvin.  Pressure   1.00000 Atm.
 Atom     1 has atomic number  6 and mass  12.00000

 Molecular mass:   154.02661 amu.
 Principal axes and moments of inertia in atomic units:
                           1         2         3
     Eigenvalues --  1017.571501956.677172974.24866
           X            0.99972  -0.02374   0.00001
           Y            0.02374   0.99972   0.00000
           Z           -0.00001  -0.00000   1.00000
 This molecule is an asymmetric top.
 Rotational symmetry number  1.
 Warning -- assumption of classical behavior for rotation
           may cause significant error
 Rotational temperatures (Kelvin)      0.08512     0.04427     0.02912
 Rotational constants (GHZ):           1.77358     0.92235     0.60679
 Zero-point vibrational energy     327712.6 (Joules/Mol)
                                   78.32520 (Kcal/Mol)
 Warning -- explicit consideration of  15 degrees of freedom as
           vibrations may cause significant error
 Vibrational temperatures:     34.12   173.50   243.96   299.21   379.11
          (Kelvin)            420.24   478.62   540.95   575.82   588.23
                              623.22   701.95   779.65   794.72   831.27
                              973.17   981.75  1071.53  1163.49  1168.25
                             1196.19  1320.27  1370.42  1398.51  1561.52
                             1683.00  1705.90  1736.91  1756.60  1857.69
                             1914.35  1929.67  1958.79  2002.48  2169.76
                             2248.30  2418.00  2462.20  2693.22  4564.78
                             4586.98  4657.32  5545.08  5624.43  5644.34

 Zero-point correction=                           0.124819 (Hartree/Particle)
 Thermal correction to Energy=                    0.134538
 Thermal correction to Enthalpy=                  0.135482
 Thermal correction to Gibbs Free Energy=         0.089056
 Sum of electronic and zero-point Energies=           -571.086308
 Sum of electronic and thermal Energies=              -571.076589
 Sum of electronic and thermal Enthalpies=            -571.075645
 Sum of electronic and thermal Free Energies=         -571.122071

                     E (Thermal)             CV                S
                      KCal/Mol        Cal/Mol-Kelvin    Cal/Mol-Kelvin
 Total                   84.424             36.780             97.711
 Electronic               0.000              0.000              0.000
 Translational            0.889              2.981             41.006
 Rotational               0.889              2.981             30.161
 Vibrational             82.646             30.819             26.545
 Vibration     1          0.593              1.985              6.296
 Vibration     2          0.609              1.932              3.091
 Vibration     3          0.625              1.880              2.440
 Vibration     4          0.641              1.828              2.061
 Vibration     5          0.670              1.740              1.639
 Vibration     6          0.687              1.688              1.462
 Vibration     7          0.715              1.610              1.247
 Vibration     8          0.747              1.521              1.055
 Vibration     9          0.766              1.470              0.962
 Vibration    10          0.773              1.451              0.931
 Vibration    11          0.794              1.398              0.848
 Vibration    12          0.844              1.277              0.689
 Vibration    13          0.897              1.157              0.561
 Vibration    14          0.908              1.135              0.539
 Vibration    15          0.934              1.079              0.490

 Optimization completed.
    -- Stationary point found.
 Normal termination of Gaussian 09 at Mon Feb 26 14:55:25 2024.
