 Gaussian 09, Revision E.01,
 Gaussian 09:  ES64L-G09RevE.01 30-Nov-2015

 -----------------------------------------------------
 # opt freq B2PLYP/6-31+g(d,p) EmpiricalDispersion=GD3
 -----------------------------------------------------

 ----------
 [No Title]
 ----------
 Symbolic Z-matrix:
 Charge =  1 Multiplicity = 1

 SCF Done:  E(RB2PLYP) =  -511.512177059     A.U. after   15 cycles
 E2(B2PLYP) =    -0.4968945740D+00 E(B2PLYP) =    -0.51200907163317D+03
 SCF Done:  E(RB2PLYP) =  -511.511513431     A.U. after   12 cycles
 E2(B2PLYP) =    -0.4977931462D+00 E(B2PLYP) =    -0.51200930657717D+03
 SCF Done:  E(RB2PLYP) =  -511.511466392     A.U. after   10 cycles
 E2(B2PLYP) =    -0.4978522169D+00 E(B2PLYP) =    -0.51200931860871D+03
 SCF Done:  E(RB2PLYP) =  -511.511476082     A.U. after   10 cycles
 E2(B2PLYP) =    -0.4978437297D+00 E(B2PLYP) =    -0.51200931981191D+03
 SCF Done:  E(RB2PLYP) =  -511.511478892     A.U. after   10 cycles
 E2(B2PLYP) =    -0.4978406730D+00 E(B2PLYP) =    -0.51200931956543D+03
 SCF Done:  E(RB2PLYP) =  -511.511481142     A.U. after    9 cycles
 E2(B2PLYP) =    -0.4978390517D+00 E(B2PLYP) =    -0.51200932019414D+03
 Optimization completed.
    -- Stationary point found.
 Normal termination of Gaussian 09 at Wed Dec 18 15:11:52 2024.

 ----------------------------------------------------------------------
 #N Geom=AllCheck Guess=TCheck SCRF=Check GenChk RB2PLYP(FC)/6-31+G(d,p
 ) Freq
 ----------------------------------------------------------------------

 Structure from the checkpoint file:  "B2PLYPD33HPA2.chk"
 ----------
 [No Title]
 ----------
 Charge =  1 Multiplicity = 1

                         Standard orientation:
 ---------------------------------------------------------------------
 Center     Atomic      Atomic             Coordinates (Angstroms)
 Number     Number       Type             X           Y           Z
 ---------------------------------------------------------------------
      1          7           0       -0.509554   -1.356373   -0.000074
      2          6           0       -1.844281   -1.421956   -0.000001
      3          6           0       -2.570897   -0.226606    0.000095
      4          6           0       -1.898503    0.983403    0.000112
      5          6           0       -0.483222    1.021485    0.000033
      6          6           0        0.208652   -0.199675   -0.000065
      7          6           0        1.681515   -0.425093   -0.000164
      8          8           0        2.162183   -1.537658   -0.000074
      9          8           0        2.367826    0.732822    0.000043
     10          8           0        0.087645    2.222315    0.000053
     11          1           0        0.055287   -2.209742   -0.000149
     12          1           0       -2.292078   -2.405722   -0.000023
     13          1           0       -3.651882   -0.262351    0.000156
     14          1           0       -2.430911    1.926933    0.000187
     15          1           0        3.325771    0.550343    0.000132
     16          1           0        1.059874    2.165973   -0.000014
 ---------------------------------------------------------------------

 SCF Done:  E(RB2PLYP) =  -511.511481142     A.U. after    1 cycles
 E2(B2PLYP) =    -0.4978390492D+00 E(B2PLYP) =    -0.51200932019165D+03
 E2(B2PLYP) =    -0.4978390492D+00 E(B2PLYP) =    -0.51200932019165D+03

 The electronic state is 1-A.
 Alpha  occ. eigenvalues --  -19.99237 -19.96719 -19.93265 -15.15759 -10.97569
 Alpha  occ. eigenvalues --  -10.92457 -10.90193 -10.90168 -10.85686 -10.85259
 Alpha  occ. eigenvalues --   -1.45255  -1.40861  -1.36594  -1.34260  -1.14384
 Alpha  occ. eigenvalues --   -1.11679  -0.99751  -0.96210  -0.92738  -0.86699
 Alpha  occ. eigenvalues --   -0.83577  -0.80135  -0.77504  -0.76120  -0.75057
 Alpha  occ. eigenvalues --   -0.74091  -0.69396  -0.68964  -0.67656  -0.66772
 Alpha  occ. eigenvalues --   -0.65771  -0.62015  -0.58118  -0.55353  -0.53928
 Alpha  occ. eigenvalues --   -0.48729
 Alpha virt. eigenvalues --   -0.22595  -0.16788  -0.11606  -0.09737  -0.08206
 Alpha virt. eigenvalues --   -0.08037  -0.07422  -0.06255  -0.06033  -0.05237
 Alpha virt. eigenvalues --   -0.02899  -0.02783  -0.01782  -0.01442  -0.00220

 Mulliken charges:
               1
     1  N   -0.246609
     2  C   -0.107495
     3  C    0.095397
     4  C    0.020792
     5  C    0.368629
     6  C    0.069216
     7  C    0.458023
     8  O   -0.474299
     9  O   -0.621685
    10  O   -0.546378
    11  H    0.397583
    12  H    0.229075
    13  H    0.226503
    14  H    0.229605
    15  H    0.456092
    16  H    0.445552
 Sum of Mulliken charges =   1.00000

 Dipole moment (field-independent basis, Debye):
    X=             -2.9644    Y=             -1.3238    Z=             -0.0001  Tot=              3.2465
 Quadrupole moment (field-independent basis, Debye-Ang):
   XX=            -25.4696   YY=            -45.2689   ZZ=            -56.5642
   XY=             10.0884   XZ=             -0.0005   YZ=              0.0005

  Exact polarizability: 109.164   1.608  94.238  -0.002   0.002  41.196
 Approx polarizability: 123.573  -0.099 123.675  -0.002   0.002  52.161

                      1                      2                      3
                      A                      A                      A
 Frequencies --     84.0598               130.5198               224.0764
 Red. masses --     10.7197                 4.5816                 6.4043
 Frc consts  --      0.0446                 0.0460                 0.1895
 IR Inten    --      3.7094                 0.0504                 6.9031

                      4                      5                      6
                      A                      A                      A
 Frequencies --    235.2336               363.5973               400.4359
 Red. masses --      4.7990                 7.8403                 3.5613
 Frc consts  --      0.1565                 0.6107                 0.3365
 IR Inten    --      2.5470                 6.0927                 9.5067

                      7                      8                      9
                      A                      A                      A
 Frequencies --    411.1039               528.4359               547.4973
 Red. masses --      6.9805                 2.8366                 6.0067
 Frc consts  --      0.6951                 0.4667                 1.0608
 IR Inten    --     13.6225                32.0676                 2.5534

                     10                     11                     12
                      A                      A                      A
 Frequencies --    564.2411               572.8223               588.0643
 Red. masses --      1.5204                 6.6956                 1.1530
 Frc consts  --      0.2852                 1.2944                 0.2349
 IR Inten    --    133.0607                13.8004                 2.6775

                     13                     14                     15
                      A                      A                      A
 Frequencies --    624.5774               633.5248               730.6261
 Red. masses --      3.0803                 5.2532                 8.0614
 Frc consts  --      0.7080                 1.2422                 2.5354
 IR Inten    --    100.0642                31.7025                45.4105

                     16                     17                     18
                      A                      A                      A
 Frequencies --    748.4030               799.8603               882.0260
 Red. masses --      4.7576                 1.3057                 1.2155
 Frc consts  --      1.5700                 0.4922                 0.5571
 IR Inten    --     13.3880                79.9267                11.2624

                     19                     20                     21
                      A                      A                      A
 Frequencies --    884.0731               960.5748               992.7160
 Red. masses --      5.9748                 1.2811                 1.2617
 Frc consts  --      2.7514                 0.6965                 0.7326
 IR Inten    --     18.9971                10.6790                 0.0022

                     22                     23                     24
                      A                      A                      A
 Frequencies --   1074.5305              1127.7725              1156.0998
 Red. masses --      2.5475                 2.2124                 3.0991
 Frc consts  --      1.7330                 1.6579                 2.4405
 IR Inten    --     23.0822                10.2633               115.1755

                     25                     26                     27
                      A                      A                      A
 Frequencies --   1195.6772              1255.9226              1276.7761
 Red. masses --      1.2898                 1.3587                 1.4697
 Frc consts  --      1.0864                 1.2627                 1.4116
 IR Inten    --     66.4435                15.5282               262.9636

                     28                     29                     30
                      A                      A                      A
 Frequencies --   1337.1631              1375.3352              1404.5950
 Red. masses --      3.4466                 1.6926                 2.0685
 Frc consts  --      3.6308                 1.8864                 2.4044
 IR Inten    --    110.8402                54.2961                78.4058

                     31                     32                     33
                      A                      A                      A
 Frequencies --   1456.6788              1536.7439              1577.8591
 Red. masses --      4.5614                 2.8523                 2.3666
 Frc consts  --      5.7026                 3.9686                 3.4714
 IR Inten    --     22.2173                59.4322               234.9585

                     34                     35                     36
                      A                      A                      A
 Frequencies --   1640.6059              1681.4350              1815.0386
 Red. masses --      5.7704                 4.9196                10.2530
 Frc consts  --      9.1510                 8.1949                19.9009
 IR Inten    --     14.0762                21.0508               315.7685

                     37                     38                     39
                      A                      A                      A
 Frequencies --   3254.5368              3272.4599              3286.2721
 Red. masses --      1.0929                 1.0949                 1.0990
 Frc consts  --      6.8207                 6.9081                 6.9929
 IR Inten    --      5.8725                 8.0308                17.9787

                     40                     41                     42
                      A                      A                      A
 Frequencies --   3489.7531              3713.7456              3738.9543
 Red. masses --      1.0804                 1.0666                 1.0650
 Frc consts  --      7.7524                 8.6673                 8.7724
 IR Inten    --    190.0960               350.1657               160.8700

 - Thermochemistry -
 -------------------
 Temperature   298.150 Kelvin.  Pressure   1.00000 Atm.
 Atom     1 has atomic number  7 and mass  14.00307

 Molecular mass:   140.03477 amu.
 Principal axes and moments of inertia in atomic units:
                           1         2         3
     Eigenvalues --   793.616971449.477542243.09451
           X            0.99951   0.03129   0.00002
           Y           -0.03129   0.99951  -0.00004
           Z           -0.00003   0.00004   1.00000
 This molecule is an asymmetric top.
 Rotational symmetry number  1.
 Warning -- assumption of classical behavior for rotation
           may cause significant error
 Rotational temperatures (Kelvin)      0.10914     0.05976     0.03861
 Rotational constants (GHZ):           2.27407     1.24510     0.80458
 Zero-point vibrational energy     320446.2 (Joules/Mol)
                                   76.58848 (Kcal/Mol)
 Warning -- explicit consideration of  12 degrees of freedom as
           vibrations may cause significant error
 Vibrational temperatures:    120.94   187.79   322.40   338.45   523.13
          (Kelvin)            576.14   591.49   760.30   787.73   811.82
                              824.16   846.09   898.63   911.50  1051.21
                             1076.78  1150.82  1269.04  1271.98  1382.05
                             1428.30  1546.01  1622.61  1663.37  1720.31
                             1806.99  1836.99  1923.88  1978.80  2020.90
                             2095.83  2211.03  2270.18  2360.46  2419.21
                             2611.43  4682.55  4708.33  4728.21  5020.97
                             5343.24  5379.51

 Zero-point correction=                           0.122052 (Hartree/Particle)
 Thermal correction to Energy=                    0.130148
 Thermal correction to Enthalpy=                  0.131092
 Thermal correction to Gibbs Free Energy=         0.088996
 Sum of electronic and zero-point Energies=           -511.887269
 Sum of electronic and thermal Energies=              -511.879172
 Sum of electronic and thermal Enthalpies=            -511.878228
 Sum of electronic and thermal Free Energies=         -511.920324

                     E (Thermal)             CV                S
                      KCal/Mol        Cal/Mol-Kelvin    Cal/Mol-Kelvin
 Total                   81.669             31.448             88.600
 Electronic               0.000              0.000              0.000
 Translational            0.889              2.981             40.722
 Rotational               0.889              2.981             29.335
 Vibrational             79.892             25.486             18.542
 Vibration     1          0.601              1.960              3.794
 Vibration     2          0.612              1.923              2.938
 Vibration     3          0.649              1.804              1.926
 Vibration     4          0.655              1.787              1.839
 Vibration     5          0.737              1.547              1.107
 Vibration     6          0.766              1.469              0.961
 Vibration     7          0.775              1.446              0.923
 Vibration     8          0.883              1.187              0.591
 Vibration     9          0.903              1.145              0.549
 Vibration    10          0.920              1.109              0.515
 Vibration    11          0.929              1.090              0.499
 Vibration    12          0.945              1.057              0.471

 Optimization completed.
    -- Stationary point found.
 Normal termination of Gaussian 09 at Wed Dec 18 15:20:48 2024.
