 Gaussian 09, Revision E.01,
 Gaussian 09:  ES64L-G09RevE.01 30-Nov-2015

 -----------------------------------------------------
 # opt freq B2PLYP/6-31+g(d,p) EmpiricalDispersion=GD3
 -----------------------------------------------------

 ----------
 [No Title]
 ----------
 Symbolic Z-matrix:
 Charge =  0 Multiplicity = 1

 SCF Done:  E(RB2PLYP) =  -511.150205276     A.U. after   15 cycles
 E2(B2PLYP) =    -0.4990860829D+00 E(B2PLYP) =    -0.51164929135895D+03
 SCF Done:  E(RB2PLYP) =  -511.149600043     A.U. after   13 cycles
 E2(B2PLYP) =    -0.4999013128D+00 E(B2PLYP) =    -0.51164950135594D+03
 SCF Done:  E(RB2PLYP) =  -511.149544903     A.U. after   12 cycles
 E2(B2PLYP) =    -0.5000764073D+00 E(B2PLYP) =    -0.51164962130988D+03
 SCF Done:  E(RB2PLYP) =  -511.149689220     A.U. after   10 cycles
 E2(B2PLYP) =    -0.4999529657D+00 E(B2PLYP) =    -0.51164964218540D+03
 SCF Done:  E(RB2PLYP) =  -511.149744672     A.U. after   10 cycles
 E2(B2PLYP) =    -0.4998993802D+00 E(B2PLYP) =    -0.51164964405254D+03
 SCF Done:  E(RB2PLYP) =  -511.149739793     A.U. after    9 cycles
 E2(B2PLYP) =    -0.4999040898D+00 E(B2PLYP) =    -0.51164964388238D+03
 SCF Done:  E(RB2PLYP) =  -511.149737154     A.U. after    9 cycles
 E2(B2PLYP) =    -0.4999071035D+00 E(B2PLYP) =    -0.51164964425751D+03
 Optimization completed.
    -- Stationary point found.
 Normal termination of Gaussian 09 at Wed Dec 18 01:12:19 2024.

 ----------------------------------------------------------------------
 #N Geom=AllCheck Guess=TCheck SCRF=Check GenChk RB2PLYP(FC)/6-31+G(d,p
 ) Freq
 ----------------------------------------------------------------------

 Structure from the checkpoint file:  "B2PLYPD33HPA.chk"
 ----------
 [No Title]
 ----------
 Charge =  0 Multiplicity = 1

                         Standard orientation:
 ---------------------------------------------------------------------
 Center     Atomic      Atomic             Coordinates (Angstroms)
 Number     Number       Type             X           Y           Z
 ---------------------------------------------------------------------
      1          7           0       -0.433321   -1.454541    0.000019
      2          6           0       -1.762512   -1.486196    0.000029
      3          6           0       -2.554603   -0.323700    0.000024
      4          6           0       -1.936223    0.915411    0.000007
      5          6           0       -0.532724    0.972390   -0.000004
      6          6           0        0.177246   -0.252258    0.000004
      7          6           0        1.655122   -0.220788   -0.000008
      8          8           0        2.304527    0.831716   -0.000038
      9          8           0        2.252451   -1.418572   -0.000002
     10          8           0        0.051921    2.184828   -0.000020
     11          1           0       -2.220554   -2.469109    0.000041
     12          1           0       -3.635323   -0.401937    0.000033
     13          1           0       -2.495125    1.842885    0.000003
     14          1           0        3.209511   -1.249609   -0.000019
     15          1           0        1.025705    2.046625   -0.000029
 ---------------------------------------------------------------------

 SCF Done:  E(RB2PLYP) =  -511.149737154     A.U. after    1 cycles
 E2(B2PLYP) =    -0.4999071040D+00 E(B2PLYP) =    -0.51164964425804D+03
 E2(B2PLYP) =    -0.4999071040D+00 E(B2PLYP) =    -0.51164964425803D+03

 The electronic state is 1-A.
 Alpha  occ. eigenvalues --  -19.81832 -19.78849 -19.76786 -14.88219 -10.80231
 Alpha  occ. eigenvalues --  -10.73165 -10.69390 -10.67963 -10.66814 -10.66400
 Alpha  occ. eigenvalues --   -1.28354  -1.22736  -1.18118  -1.09780  -0.94257
 Alpha  occ. eigenvalues --   -0.90642  -0.80198  -0.74603  -0.72762  -0.64568
 Alpha  occ. eigenvalues --   -0.63666  -0.60710  -0.58256  -0.56104  -0.55540
 Alpha  occ. eigenvalues --   -0.50986  -0.50396  -0.49676  -0.48460  -0.47552
 Alpha  occ. eigenvalues --   -0.44636  -0.41238  -0.38828  -0.34462  -0.34411
 Alpha  occ. eigenvalues --   -0.29556
 Alpha virt. eigenvalues --   -0.02757   0.02371   0.02579   0.03272   0.05161
 Alpha virt. eigenvalues --    0.05713   0.07076   0.07398   0.08018   0.08869
 Alpha virt. eigenvalues --    0.09938   0.10350   0.11070   0.11648   0.12838

 Mulliken charges:
               1
     1  N   -0.207913
     2  C   -0.150312
     3  C    0.076286
     4  C    0.016674
     5  C    0.040524
     6  C   -0.004852
     7  C    0.606144
     8  O   -0.606426
     9  O   -0.477471
    10  O   -0.597899
    11  H    0.145287
    12  H    0.162179
    13  H    0.172670
    14  H    0.394008
    15  H    0.431101
 Sum of Mulliken charges =   0.00000

 Dipole moment (field-independent basis, Debye):
    X=             -1.5276    Y=             -0.5707    Z=              0.0000  Tot=              1.6308
 Quadrupole moment (field-independent basis, Debye-Ang):
   XX=            -43.6724   YY=            -63.2381   ZZ=            -58.6704
   XY=             -2.2563   XZ=             -0.0001   YZ=              0.0001

  Exact polarizability: 117.606   3.500  97.695  -0.001  -0.001  46.867
 Approx polarizability: 130.825   6.215 124.452  -0.001  -0.001  58.418

                      1                      2                      3
                      A                      A                      A
 Frequencies --     79.7932               132.5624               245.7304
 Red. masses --      9.1523                 6.0129                 5.0522
 Frc consts  --      0.0343                 0.0623                 0.1797
 IR Inten    --      1.0624                 3.1039                 1.4350

                      4                      5                      6
                      A                      A                      A
 Frequencies --    246.1106               364.5574               421.4333
 Red. masses --      6.5041                 7.5289                 4.0375
 Frc consts  --      0.2321                 0.5895                 0.4225
 IR Inten    --      2.5194                11.2624                 0.4630

                      7                      8                      9
                      A                      A                      A
 Frequencies --    439.0179               528.1149               537.9498
 Red. masses --      9.6789                 5.6216                 4.1531
 Frc consts  --      1.0991                 0.9238                 0.7081
 IR Inten    --      2.9194                 4.5562                 0.7488

                     10                     11                     12
                      A                      A                      A
 Frequencies --    579.1065               601.1884               650.0449
 Red. masses --      7.5871                 1.2623                 6.3311
 Frc consts  --      1.4991                 0.2688                 1.5762
 IR Inten    --      5.7815                72.8252                65.1626

                     13                     14                     15
                      A                      A                      A
 Frequencies --    691.7632               756.2224               756.6462
 Red. masses --      4.5204                 1.2975                 4.8520
 Frc consts  --      1.2745                 0.4372                 1.6366
 IR Inten    --     19.6945               185.0386                24.1632

                     16                     17                     18
                      A                      A                      A
 Frequencies --    767.3462               820.3917               878.4078
 Red. masses --      3.2279                 1.3792                 7.0449
 Frc consts  --      1.1198                 0.5469                 3.2027
 IR Inten    --      0.4115                13.0262                 7.5688

                     19                     20                     21
                      A                      A                      A
 Frequencies --    931.5236               970.9423              1075.0463
 Red. masses --      1.3291                 1.2716                 2.4708
 Frc consts  --      0.6795                 0.7063                 1.6825
 IR Inten    --      0.0376                 0.6070                 1.6340

                     22                     23                     24
                      A                      A                      A
 Frequencies --   1113.0036              1161.9757              1203.7189
 Red. masses --      3.8445                 1.4954                 1.7922
 Frc consts  --      2.8060                 1.1896                 1.5300
 IR Inten    --     90.3259                16.8282               335.4585

                     25                     26                     27
                      A                      A                      A
 Frequencies --   1270.4741              1303.5346              1363.5327
 Red. masses --      1.8135                 2.3633                 2.1839
 Frc consts  --      1.7246                 2.3660                 2.3923
 IR Inten    --      1.9836               106.6956                22.7369

                     28                     29                     30
                      A                      A                      A
 Frequencies --   1379.4894              1457.1915              1492.6342
 Red. masses --      2.9844                 3.0341                 2.9694
 Frc consts  --      3.3461                 3.7959                 3.8978
 IR Inten    --     47.7328               154.1706               192.5698

                     31                     32                     33
                      A                      A                      A
 Frequencies --   1504.0056              1625.2458              1646.4192
 Red. masses --      2.4664                 4.3579                 6.6722
 Frc consts  --      3.2872                 6.7822                10.6561
 IR Inten    --     15.5238                24.1414                 4.4101

                     34                     35                     36
                      A                      A                      A
 Frequencies --   1728.2984              3217.4253              3235.6972
 Red. masses --      7.2967                 1.0890                 1.0921
 Frc consts  --     12.8414                 6.6418                 6.7370
 IR Inten    --    334.6674                 6.8038                13.6290

                     37                     38                     39
                      A                      A                      A
 Frequencies --   3251.6279              3492.6317              3772.7302
 Red. masses --      1.0970                 1.0669                 1.0644
 Frc consts  --      6.8337                 7.6683                 8.9265
 IR Inten    --      3.9155               310.4235               113.4029

 - Thermochemistry -
 -------------------
 Temperature   298.150 Kelvin.  Pressure   1.00000 Atm.
 Atom     1 has atomic number  7 and mass  14.00307

 Molecular mass:   139.02694 amu.
 Principal axes and moments of inertia in atomic units:
                           1         2         3
     Eigenvalues --   768.730711435.173452203.90416
           X            1.00000   0.00230   0.00001
           Y           -0.00230   1.00000   0.00001
           Z           -0.00001  -0.00001   1.00000
 This molecule is an asymmetric top.
 Rotational symmetry number  1.
 Warning -- assumption of classical behavior for rotation
           may cause significant error
 Rotational temperatures (Kelvin)      0.11267     0.06035     0.03930
 Rotational constants (GHZ):           2.34769     1.25751     0.81888
 Zero-point vibrational energy     285270.7 (Joules/Mol)
                                   68.18133 (Kcal/Mol)
 Warning -- explicit consideration of  11 degrees of freedom as
           vibrations may cause significant error
 Vibrational temperatures:    114.80   190.73   353.55   354.10   524.52
          (Kelvin)            606.35   631.65   759.84   773.99   833.20
                              864.97   935.27   995.29  1088.03  1088.64
                             1104.04  1180.36  1263.83  1340.25  1396.97
                             1546.75  1601.36  1671.82  1731.88  1827.93
                             1875.49  1961.82  1984.78  2096.57  2147.56
                             2163.93  2338.36  2368.83  2486.63  4629.15
                             4655.44  4678.36  5025.11  5428.11

 Zero-point correction=                           0.108654 (Hartree/Particle)
 Thermal correction to Energy=                    0.116454
 Thermal correction to Enthalpy=                  0.117398
 Thermal correction to Gibbs Free Energy=         0.075789
 Sum of electronic and zero-point Energies=           -511.540990
 Sum of electronic and thermal Energies=              -511.533191
 Sum of electronic and thermal Enthalpies=            -511.532246
 Sum of electronic and thermal Free Energies=         -511.573855

                     E (Thermal)             CV                S
                      KCal/Mol        Cal/Mol-Kelvin    Cal/Mol-Kelvin
 Total                   73.076             30.054             87.573
 Electronic               0.000              0.000              0.000
 Translational            0.889              2.981             40.700
 Rotational               0.889              2.981             29.276
 Vibrational             71.298             24.093             17.596
 Vibration     1          0.600              1.963              3.896
 Vibration     2          0.613              1.921              2.909
 Vibration     3          0.660              1.770              1.761
 Vibration     4          0.661              1.769              1.758
 Vibration     5          0.738              1.545              1.103
 Vibration     6          0.784              1.424              0.887
 Vibration     7          0.799              1.385              0.830
 Vibration     8          0.883              1.188              0.591
 Vibration     9          0.893              1.166              0.570
 Vibration    10          0.936              1.076              0.487
 Vibration    11          0.959              1.029              0.448

 Optimization completed.
    -- Stationary point found.
 Normal termination of Gaussian 09 at Wed Dec 18 01:24:20 2024.
