 Gaussian 09, Revision E.01,
 Gaussian 09:  ES64L-G09RevE.01 30-Nov-2015

 ----------------------------------------------------
 # opt freq b3lyp/6-31+g(d,p) EmpiricalDispersion=GD3
 ----------------------------------------------------

 ----------
 [No Title]
 ----------
 Symbolic Z-matrix:
 Charge =  0 Multiplicity = 1

 SCF Done:  E(RB3LYP) =  -512.131999356     A.U. after   14 cycles
 SCF Done:  E(RB3LYP) =  -512.132109297     A.U. after   12 cycles
 SCF Done:  E(RB3LYP) =  -512.132208442     A.U. after   12 cycles
 SCF Done:  E(RB3LYP) =  -512.132220620     A.U. after   10 cycles
 SCF Done:  E(RB3LYP) =  -512.132222040     A.U. after    9 cycles
 SCF Done:  E(RB3LYP) =  -512.132221562     A.U. after    9 cycles
 SCF Done:  E(RB3LYP) =  -512.132222231     A.U. after    9 cycles
 Optimization completed.
    -- Stationary point found.
 Normal termination of Gaussian 09 at Tue Dec 17 14:44:15 2024.

 ----------------------------------------------------------------------
 #N Geom=AllCheck Guess=TCheck SCRF=Check GenChk RB3LYP/6-31+G(d,p) Fre
 q
 ----------------------------------------------------------------------

 Structure from the checkpoint file:  "b3lypD33HPA.chk"
 ----------
 [No Title]
 ----------
 Charge =  0 Multiplicity = 1

                         Standard orientation:
 ---------------------------------------------------------------------
 Center     Atomic      Atomic             Coordinates (Angstroms)
 Number     Number       Type             X           Y           Z
 ---------------------------------------------------------------------
      1          7           0       -0.437356   -1.452534    0.000027
      2          6           0       -1.763335   -1.486428    0.000031
      3          6           0       -2.555666   -0.322229    0.000019
      4          6           0       -1.937685    0.916375    0.000001
      5          6           0       -0.533215    0.973195   -0.000003
      6          6           0        0.176762   -0.254597    0.000011
      7          6           0        1.655637   -0.221173    0.000010
      8          8           0        2.301690    0.831191   -0.000042
      9          8           0        2.258394   -1.415351   -0.000012
     10          8           0        0.054750    2.180650   -0.000020
     11          1           0       -2.224057   -2.470950    0.000045
     12          1           0       -3.638620   -0.400944    0.000022
     13          1           0       -2.497053    1.845899   -0.000009
     14          1           0        3.216464   -1.248973   -0.000043
     15          1           0        1.031104    2.039932   -0.000023
 ---------------------------------------------------------------------

 SCF Done:  E(RB3LYP) =  -512.132222231     A.U. after    1 cycles

 The electronic state is 1-A.
 Alpha  occ. eigenvalues --  -19.22548 -19.19936 -19.17692 -14.36079 -10.35329
 Alpha  occ. eigenvalues --  -10.29014 -10.25518 -10.24022 -10.22892 -10.22608
 Alpha  occ. eigenvalues --   -1.13842  -1.08799  -1.04261  -0.96712  -0.82519
 Alpha  occ. eigenvalues --   -0.79325  -0.70317  -0.65203  -0.64056  -0.56779
 Alpha  occ. eigenvalues --   -0.55656  -0.52111  -0.50532  -0.48564  -0.48364
 Alpha  occ. eigenvalues --   -0.43617  -0.43581  -0.42522  -0.41148  -0.40464
 Alpha  occ. eigenvalues --   -0.38539  -0.34853  -0.31905  -0.30554  -0.27694
 Alpha  occ. eigenvalues --   -0.25881
 Alpha virt. eigenvalues --   -0.08175  -0.03338  -0.00621   0.00361   0.02135
 Alpha virt. eigenvalues --    0.02293   0.02891   0.04610   0.04890   0.05286
 Alpha virt. eigenvalues --    0.07461   0.07724   0.08338   0.08953   0.09980

 Mulliken charges:
               1
     1  N   -0.209084
     2  C   -0.176705
     3  C    0.116713
     4  C   -0.009886
     5  C    0.061253
     6  C    0.018374
     7  C    0.528780
     8  O   -0.564543
     9  O   -0.429064
    10  O   -0.554336
    11  H    0.131063
    12  H    0.139891
    13  H    0.151313
    14  H    0.384460
    15  H    0.411771
 Sum of Mulliken charges =  -0.00000

 Dipole moment (field-independent basis, Debye):
    X=             -1.3084    Y=             -0.4217    Z=              0.0000  Tot=              1.3747
 Quadrupole moment (field-independent basis, Debye-Ang):
   XX=            -44.0733   YY=            -62.8844   ZZ=            -58.3937
   XY=             -2.2676   XZ=             -0.0001   YZ=              0.0002

  Exact polarizability: 119.707   3.339  98.026  -0.001  -0.001  46.915
 Approx polarizability: 182.384   8.646 171.146  -0.001  -0.001  69.001

                      1                      2                      3
                      A                      A                      A
 Frequencies --     89.7042               137.9520               245.2068
 Red. masses --      8.8959                 6.0316                 6.4477
 Frc consts  --      0.0422                 0.0676                 0.2284
 IR Inten    --      1.2461                 2.8117                 2.5693

                      4                      5                      6
                      A                      A                      A
 Frequencies --    255.3415               363.5696               437.2541
 Red. masses --      4.9846                 7.4797                 3.8024
 Frc consts  --      0.1915                 0.5825                 0.4283
 IR Inten    --      1.5127                11.6206                 0.5101

                      7                      8                      9
                      A                      A                      A
 Frequencies --    440.8145               529.1266               552.1036
 Red. masses --      9.7055                 5.5950                 3.7494
 Frc consts  --      1.1112                 0.9229                 0.6734
 IR Inten    --      2.8093                 3.7863                 0.9226

                     10                     11                     12
                      A                      A                      A
 Frequencies --    578.2179               606.8987               650.9935
 Red. masses --      7.5961                 1.2424                 6.3147
 Frc consts  --      1.4963                 0.2696                 1.5767
 IR Inten    --      6.0901                77.5957                65.5910

                     13                     14                     15
                      A                      A                      A
 Frequencies --    726.5448               756.7498               787.5288
 Red. masses --      3.4183                 4.7668                 1.0857
 Frc consts  --      1.0631                 1.6083                 0.3967
 IR Inten    --     52.8817                24.6548               130.1956

                     16                     17                     18
                      A                      A                      A
 Frequencies --    815.2032               829.3166               876.3572
 Red. masses --      9.4239                 1.4008                 7.0524
 Frc consts  --      3.6899                 0.5677                 3.1912
 IR Inten    --     17.7307                 6.5891                 7.6063

                     19                     20                     21
                      A                      A                      A
 Frequencies --    941.3521               998.7901              1068.6644
 Red. masses --      1.3774                 1.3397                 2.4476
 Frc consts  --      0.7191                 0.7874                 1.6469
 IR Inten    --      0.0247                 0.8118                 2.5588

                     22                     23                     24
                      A                      A                      A
 Frequencies --   1110.3836              1157.3471              1194.0774
 Red. masses --      3.7769                 1.4475                 1.9020
 Frc consts  --      2.7437                 1.1423                 1.5978
 IR Inten    --     83.1103                 7.5321               373.1521

                     25                     26                     27
                      A                      A                      A
 Frequencies --   1265.9187              1296.7813              1352.0730
 Red. masses --      1.7812                 2.5329                 2.7678
 Frc consts  --      1.6818                 2.5096                 2.9811
 IR Inten    --      1.0467                80.4989                32.0835

                     28                     29                     30
                      A                      A                      A
 Frequencies --   1367.4541              1446.8553              1482.3165
 Red. masses --      2.1470                 3.4296                 2.7009
 Frc consts  --      2.3655                 4.2300                 3.4966
 IR Inten    --     54.3499               171.9060               189.1705

                     31                     32                     33
                      A                      A                      A
 Frequencies --   1498.1059              1614.2051              1641.1606
 Red. masses --      2.5936                 4.1907                 6.7763
 Frc consts  --      3.4296                 6.4335                10.7534
 IR Inten    --     13.0606                24.0319                 4.7559

                     34                     35                     36
                      A                      A                      A
 Frequencies --   1727.5962              3179.4486              3201.3664
 Red. masses --      7.4992                 1.0891                 1.0917
 Frc consts  --     13.1871                 6.4866                 6.5923
 IR Inten    --    364.9873                 9.0749                14.5438

                     37                     38                     39
                      A                      A                      A
 Frequencies --   3219.1280              3436.1759              3757.3238
 Red. masses --      1.0963                 1.0674                 1.0645
 Frc consts  --      6.6936                 7.4254                 8.8543
 IR Inten    --      3.7454               327.3497               109.0331

 - Thermochemistry -
 -------------------
 Temperature   298.150 Kelvin.  Pressure   1.00000 Atm.
 Atom     1 has atomic number  7 and mass  14.00307

 Molecular mass:   139.02694 amu.
 Principal axes and moments of inertia in atomic units:
                           1         2         3
     Eigenvalues --   766.981351437.217442204.19879
           X            1.00000   0.00227   0.00001
           Y           -0.00227   1.00000   0.00001
           Z           -0.00001  -0.00001   1.00000
 This molecule is an asymmetric top.
 Rotational symmetry number  1.
 Warning -- assumption of classical behavior for rotation
           may cause significant error
 Rotational temperatures (Kelvin)      0.11293     0.06026     0.03929
 Rotational constants (GHZ):           2.35304     1.25572     0.81877
 Zero-point vibrational energy     284923.0 (Joules/Mol)
                                   68.09823 (Kcal/Mol)
 Warning -- explicit consideration of  11 degrees of freedom as
           vibrations may cause significant error
 Vibrational temperatures:    129.06   198.48   352.80   367.38   523.09
          (Kelvin)            629.11   634.23   761.29   794.35   831.93
                              873.19   936.63  1045.33  1088.79  1133.08
                             1172.89  1193.20  1260.88  1354.39  1437.03
                             1537.57  1597.59  1665.16  1718.01  1821.37
                             1865.78  1945.33  1967.46  2081.70  2132.72
                             2155.44  2322.48  2361.26  2485.62  4574.51
                             4606.05  4631.60  4943.88  5405.94

 Zero-point correction=                           0.108521 (Hartree/Particle)
 Thermal correction to Energy=                    0.116211
 Thermal correction to Enthalpy=                  0.117155
 Thermal correction to Gibbs Free Energy=         0.075823
 Sum of electronic and zero-point Energies=           -512.023701
 Sum of electronic and thermal Energies=              -512.016012
 Sum of electronic and thermal Enthalpies=            -512.015067
 Sum of electronic and thermal Free Energies=         -512.056400

                     E (Thermal)             CV                S
                      KCal/Mol        Cal/Mol-Kelvin    Cal/Mol-Kelvin
 Total                   72.923             29.734             86.991
 Electronic               0.000              0.000              0.000
 Translational            0.889              2.981             40.700
 Rotational               0.889              2.981             29.276
 Vibrational             71.146             23.773             17.015
 Vibration     1          0.602              1.956              3.667
 Vibration     2          0.614              1.915              2.832
 Vibration     3          0.660              1.771              1.765
 Vibration     4          0.666              1.754              1.693
 Vibration     5          0.737              1.547              1.107
 Vibration     6          0.798              1.389              0.835
 Vibration     7          0.801              1.381              0.824
 Vibration     8          0.884              1.186              0.589
 Vibration     9          0.907              1.135              0.540
 Vibration    10          0.935              1.078              0.489
 Vibration    11          0.966              1.017              0.438

 Optimization completed.
    -- Stationary point found.
 Normal termination of Gaussian 09 at Tue Dec 17 14:44:50 2024.
