 Gaussian 09, Revision E.01,
 Gaussian 09:  ES64L-G09RevE.01 30-Nov-2015

 ----------------------------------------------------
 # opt freq b3lyp/6-31+g(d,p) EmpiricalDispersion=GD3
 ----------------------------------------------------

 ----------
 [No Title]
 ----------
 Symbolic Z-matrix:
 Charge =  1 Multiplicity = 1

 SCF Done:  E(RB3LYP) =  -512.493116651     A.U. after   14 cycles
 SCF Done:  E(RB3LYP) =  -512.493293326     A.U. after   11 cycles
 SCF Done:  E(RB3LYP) =  -512.493309899     A.U. after   10 cycles
 SCF Done:  E(RB3LYP) =  -512.493311430     A.U. after    9 cycles
 SCF Done:  E(RB3LYP) =  -512.493311274     A.U. after    9 cycles
 SCF Done:  E(RB3LYP) =  -512.493311944     A.U. after    9 cycles
 Optimization completed.
    -- Stationary point found.
 Normal termination of Gaussian 09 at Tue Dec 17 14:54:44 2024.

 ----------------------------------------------------------------------
 #N Geom=AllCheck Guess=TCheck SCRF=Check GenChk RB3LYP/6-31+G(d,p) Fre
 q
 ----------------------------------------------------------------------

 Structure from the checkpoint file:  "b3lypD33HPA2.chk"
 ----------
 [No Title]
 ----------
 Charge =  1 Multiplicity = 1

                         Standard orientation:
 ---------------------------------------------------------------------
 Center     Atomic      Atomic             Coordinates (Angstroms)
 Number     Number       Type             X           Y           Z
 ---------------------------------------------------------------------
      1          7           0       -0.514293   -1.357519   -0.000078
      2          6           0       -1.847704   -1.418867    0.000001
      3          6           0       -2.573017   -0.221437    0.000102
      4          6           0       -1.898440    0.986054    0.000116
      5          6           0       -0.481273    1.021344    0.000030
      6          6           0        0.207173   -0.202321   -0.000071
      7          6           0        1.681758   -0.426875   -0.000177
      8          8           0        2.163230   -1.535369   -0.000074
      9          8           0        2.370566    0.729375    0.000057
     10          8           0        0.092599    2.218603    0.000045
     11          1           0        0.048525   -2.213523   -0.000156
     12          1           0       -2.301124   -2.402493   -0.000019
     13          1           0       -3.656268   -0.255878    0.000168
     14          1           0       -2.429122    1.932883    0.000193
     15          1           0        3.329637    0.550015    0.000161
     16          1           0        1.066263    2.163374   -0.000029
 ---------------------------------------------------------------------

 SCF Done:  E(RB3LYP) =  -512.493311944     A.U. after    1 cycles

 The electronic state is 1-A.
 Alpha  occ. eigenvalues --  -19.40049 -19.37996 -19.34041 -14.63683 -10.52722
 Alpha  occ. eigenvalues --  -10.48309 -10.46161 -10.45792 -10.41608 -10.41404
 Alpha  occ. eigenvalues --   -1.30769  -1.27014  -1.22803  -1.20765  -1.02549
 Alpha  occ. eigenvalues --   -1.00289  -0.89760  -0.86652  -0.83960  -0.78575
 Alpha  occ. eigenvalues --   -0.75555  -0.72095  -0.70098  -0.67670  -0.67288
 Alpha  occ. eigenvalues --   -0.67028  -0.62516  -0.61375  -0.60441  -0.59779
 Alpha  occ. eigenvalues --   -0.59172  -0.55071  -0.51920  -0.49786  -0.48341
 Alpha  occ. eigenvalues --   -0.44923
 Alpha virt. eigenvalues --   -0.27832  -0.22698  -0.15234  -0.15208  -0.13657
 Alpha virt. eigenvalues --   -0.11455  -0.11048  -0.09606  -0.09015  -0.08515
 Alpha virt. eigenvalues --   -0.06229  -0.05466  -0.05394  -0.04720  -0.04337

 Mulliken charges:
               1
     1  N   -0.204226
     2  C   -0.149831
     3  C    0.149866
     4  C   -0.004201
     5  C    0.383618
     6  C    0.088403
     7  C    0.374858
     8  O   -0.433913
     9  O   -0.573942
    10  O   -0.502899
    11  H    0.371999
    12  H    0.211714
    13  H    0.205243
    14  H    0.206831
    15  H    0.444956
    16  H    0.431523
 Sum of Mulliken charges =   1.00000

 Dipole moment (field-independent basis, Debye):
    X=             -2.6840    Y=             -1.1414    Z=             -0.0001  Tot=              2.9166
 Quadrupole moment (field-independent basis, Debye-Ang):
   XX=            -25.5922   YY=            -44.8107   ZZ=            -56.2322
   XY=              9.8192   XZ=             -0.0004   YZ=              0.0005

  Exact polarizability: 110.996   1.367  94.478  -0.002   0.002  41.216
 Approx polarizability: 172.491   0.542 170.961  -0.004   0.003  60.886

                      1                      2                      3
                      A                      A                      A
 Frequencies --     92.8249               135.3989               222.4620
 Red. masses --     10.3580                 4.5379                 6.3527
 Frc consts  --      0.0526                 0.0490                 0.1852
 IR Inten    --      4.7335                 0.0294                 7.1678

                      4                      5                      6
                      A                      A                      A
 Frequencies --    246.2229               363.4467               412.7003
 Red. masses --      4.7877                 7.8375                 7.0028
 Frc consts  --      0.1710                 0.6100                 0.7027
 IR Inten    --      1.9477                 6.4509                13.1258

                      7                      8                      9
                      A                      A                      A
 Frequencies --    415.7384               545.4568               547.6244
 Red. masses --      3.3266                 2.9370                 5.8861
 Frc consts  --      0.3388                 0.5148                 1.0400
 IR Inten    --     10.2176                 7.3369                 1.9459

                     10                     11                     12
                      A                      A                      A
 Frequencies --    572.0090               586.1696               607.7526
 Red. masses --      6.8442                 1.3594                 1.1082
 Frc consts  --      1.3194                 0.2752                 0.2412
 IR Inten    --     13.1682               132.1590                51.3803

                     13                     14                     15
                      A                      A                      A
 Frequencies --    634.8701               675.6813               748.6232
 Red. masses --      5.2622                 3.0365                 4.7022
 Frc consts  --      1.2496                 0.8168                 1.5527
 IR Inten    --     32.2446               100.9660                13.5961

                     16                     17                     18
                      A                      A                      A
 Frequencies --    779.3158               806.1049               881.7187
 Red. masses --      9.4398                 1.3474                 5.9506
 Frc consts  --      3.3778                 0.5159                 2.7256
 IR Inten    --     15.7906                78.2721                19.6185

                     19                     20                     21
                      A                      A                      A
 Frequencies --    891.2131               972.9803              1020.0023
 Red. masses --      1.2613                 1.3186                 1.3246
 Frc consts  --      0.5902                 0.7355                 0.8119
 IR Inten    --      9.1133                10.9535                 0.0000

                     22                     23                     24
                      A                      A                      A
 Frequencies --   1069.8363              1121.0764              1154.6445
 Red. masses --      2.4950                 2.2177                 3.0725
 Frc consts  --      1.6825                 1.6422                 2.4134
 IR Inten    --     21.2656                14.3344               118.5209

                     25                     26                     27
                      A                      A                      A
 Frequencies --   1187.5852              1251.1931              1267.9005
 Red. masses --      1.3144                 1.3581                 1.4807
 Frc consts  --      1.0922                 1.2526                 1.4024
 IR Inten    --     79.3170                17.6880               259.3122

                     28                     29                     30
                      A                      A                      A
 Frequencies --   1322.4201              1365.7145              1394.9768
 Red. masses --      3.4892                 1.6926                 2.1463
 Frc consts  --      3.5952                 1.8601                 2.4608
 IR Inten    --    119.5626                45.3253                67.8098

                     31                     32                     33
                      A                      A                      A
 Frequencies --   1436.6457              1529.7922              1568.2223
 Red. masses --      3.8962                 2.9335                 2.3670
 Frc consts  --      4.7379                 4.0448                 3.4297
 IR Inten    --     30.3628                61.5434               236.6334

                     34                     35                     36
                      A                      A                      A
 Frequencies --   1626.7608              1673.6407              1827.3360
 Red. masses --      5.7748                 4.9321                10.4115
 Frc consts  --      9.0040                 8.1397                20.4832
 IR Inten    --     18.9861                21.1263               338.7029

                     37                     38                     39
                      A                      A                      A
 Frequencies --   3223.5266              3239.7192              3253.4440
 Red. masses --      1.0926                 1.0948                 1.0986
 Frc consts  --      6.6893                 6.7703                 6.8516
 IR Inten    --      5.1885                 8.1290                17.7073

                     40                     41                     42
                      A                      A                      A
 Frequencies --   3463.6013              3683.6537              3724.0008
 Red. masses --      1.0801                 1.0665                 1.0652
 Frc consts  --      7.6343                 8.5268                 8.7036
 IR Inten    --    184.9673               313.2197               188.2499

 - Thermochemistry -
 -------------------
 Temperature   298.150 Kelvin.  Pressure   1.00000 Atm.
 Atom     1 has atomic number  7 and mass  14.00307

 Molecular mass:   140.03477 amu.
 Principal axes and moments of inertia in atomic units:
                           1         2         3
     Eigenvalues --   792.023651452.066992244.09064
           X            0.99952   0.03113   0.00002
           Y           -0.03113   0.99952  -0.00004
           Z           -0.00003   0.00004   1.00000
 This molecule is an asymmetric top.
 Rotational symmetry number  1.
 Warning -- assumption of classical behavior for rotation
           may cause significant error
 Rotational temperatures (Kelvin)      0.10936     0.05965     0.03860
 Rotational constants (GHZ):           2.27865     1.24288     0.80422
 Zero-point vibrational energy     320264.3 (Joules/Mol)
                                   76.54500 (Kcal/Mol)
 Warning -- explicit consideration of  12 degrees of freedom as
           vibrations may cause significant error
 Vibrational temperatures:    133.55   194.81   320.07   354.26   522.92
          (Kelvin)            593.78   598.15   784.79   787.91   822.99
                              843.37   874.42   913.44   972.15  1077.10
                             1121.26  1159.80  1268.60  1282.26  1399.90
                             1467.55  1539.25  1612.98  1661.27  1708.67
                             1800.19  1824.22  1902.67  1964.96  2007.06
                             2067.01  2201.03  2256.32  2340.54  2407.99
                             2629.13  4637.93  4661.23  4680.97  4983.34
                             5299.95  5358.00

 Zero-point correction=                           0.121982 (Hartree/Particle)
 Thermal correction to Energy=                    0.129943
 Thermal correction to Enthalpy=                  0.130888
 Thermal correction to Gibbs Free Energy=         0.089094
 Sum of electronic and zero-point Energies=           -512.371330
 Sum of electronic and thermal Energies=              -512.363369
 Sum of electronic and thermal Enthalpies=            -512.362424
 Sum of electronic and thermal Free Energies=         -512.404218

                     E (Thermal)             CV                S
                      KCal/Mol        Cal/Mol-Kelvin    Cal/Mol-Kelvin
 Total                   81.541             31.053             87.961
 Electronic               0.000              0.000              0.000
 Translational            0.889              2.981             40.722
 Rotational               0.889              2.981             29.336
 Vibrational             79.763             25.091             17.904
 Vibration     1          0.602              1.954              3.600
 Vibration     2          0.613              1.918              2.868
 Vibration     3          0.648              1.807              1.939
 Vibration     4          0.661              1.769              1.757
 Vibration     5          0.737              1.548              1.107
 Vibration     6          0.776              1.443              0.917
 Vibration     7          0.779              1.436              0.907
 Vibration     8          0.901              1.150              0.554
 Vibration     9          0.903              1.145              0.549
 Vibration    10          0.928              1.092              0.500
 Vibration    11          0.943              1.061              0.474
 Vibration    12          0.967              1.015              0.437

 Optimization completed.
    -- Stationary point found.
 Normal termination of Gaussian 09 at Tue Dec 17 14:55:17 2024.
