 Gaussian 09, Revision E.01,
 Gaussian 09:  ES64L-G09RevE.01 30-Nov-2015

 -----------------------------------------------------
 # opt freq b3pw91/6-31+g(d,p) EmpiricalDispersion=GD3
 -----------------------------------------------------

 ----------
 [No Title]
 ----------
 Symbolic Z-matrix:
 Charge =  0 Multiplicity = 1

 SCF Done:  E(RB3PW91) =  -511.932724168     A.U. after   14 cycles
 SCF Done:  E(RB3PW91) =  -511.932725859     A.U. after   11 cycles
 SCF Done:  E(RB3PW91) =  -511.932736132     A.U. after   10 cycles
 SCF Done:  E(RB3PW91) =  -511.932736651     A.U. after    9 cycles
 Optimization completed.
    -- Stationary point found.
 Normal termination of Gaussian 09 at Wed Dec 18 00:21:26 2024.

 ----------------------------------------------------------------------
 #N Geom=AllCheck Guess=TCheck SCRF=Check GenChk RB3PW91/6-31+G(d,p) Fr
 eq
 ----------------------------------------------------------------------

 Structure from the checkpoint file:  "B3PW91D33HPA.chk"
 ----------
 [No Title]
 ----------
 Charge =  0 Multiplicity = 1

                         Standard orientation:
 ---------------------------------------------------------------------
 Center     Atomic      Atomic             Coordinates (Angstroms)
 Number     Number       Type             X           Y           Z
 ---------------------------------------------------------------------
      1          7           0       -0.439252   -1.450153   -0.000065
      2          6           0       -1.762438   -1.479570   -0.000003
      3          6           0       -2.550529   -0.315295    0.000070
      4          6           0       -1.931108    0.920082    0.000062
      5          6           0       -0.528316    0.973486   -0.000018
      6          6           0        0.174224   -0.256263   -0.000075
      7          6           0        1.649546   -0.224117   -0.000116
      8          8           0        2.293561    0.827857    0.000171
      9          8           0        2.249239   -1.413369   -0.000004
     10          8           0        0.065910    2.170239   -0.000070
     11          1           0       -2.226015   -2.463246    0.000000
     12          1           0       -3.634004   -0.390909    0.000126
     13          1           0       -2.488923    1.850918    0.000104
     14          1           0        3.205002   -1.244880    0.000137
     15          1           0        1.040740    2.011439   -0.000205
 ---------------------------------------------------------------------

 SCF Done:  E(RB3PW91) =  -511.932736651     A.U. after    1 cycles

 The electronic state is 1-A.
 Alpha  occ. eigenvalues --  -19.21541 -19.18821 -19.16631 -14.35040 -10.33760
 Alpha  occ. eigenvalues --  -10.27575 -10.24042 -10.22557 -10.21513 -10.21220
 Alpha  occ. eigenvalues --   -1.14512  -1.09394  -1.04697  -0.97230  -0.82860
 Alpha  occ. eigenvalues --   -0.79641  -0.70598  -0.65447  -0.64339  -0.56970
 Alpha  occ. eigenvalues --   -0.55883  -0.52403  -0.50662  -0.48729  -0.48598
 Alpha  occ. eigenvalues --   -0.43881  -0.43648  -0.42515  -0.41166  -0.40455
 Alpha  occ. eigenvalues --   -0.38791  -0.35017  -0.31956  -0.30760  -0.27617
 Alpha  occ. eigenvalues --   -0.25941
 Alpha virt. eigenvalues --   -0.08163  -0.03223   0.00572   0.01471   0.02301
 Alpha virt. eigenvalues --    0.03515   0.03968   0.05811   0.05943   0.06383
 Alpha virt. eigenvalues --    0.08638   0.08836   0.09444   0.10087   0.11134

 Mulliken charges:
               1
     1  N   -0.137680
     2  C   -0.235428
     3  C    0.103224
     4  C    0.012446
     5  C    0.004445
     6  C   -0.003738
     7  C    0.456718
     8  O   -0.547073
     9  O   -0.416441
    10  O   -0.528959
    11  H    0.150699
    12  H    0.166508
    13  H    0.176132
    14  H    0.387520
    15  H    0.411628
 Sum of Mulliken charges =  -0.00000

 Dipole moment (field-independent basis, Debye):
    X=             -1.2183    Y=             -0.4345    Z=             -0.0003  Tot=              1.2935
 Quadrupole moment (field-independent basis, Debye-Ang):
   XX=            -43.1390   YY=            -62.0423   ZZ=            -58.0137
   XY=             -2.4031   XZ=             -0.0010   YZ=             -0.0012

  Exact polarizability: 118.015   3.318  96.636  -0.001   0.001  45.738
 Approx polarizability: 180.072   8.665 169.047  -0.001   0.003  66.274

                      1                      2                      3
                      A                      A                      A
 Frequencies --     91.2357               137.8422               244.1871
 Red. masses --      8.6246                 6.1222                 6.4053
 Frc consts  --      0.0423                 0.0685                 0.2250
 IR Inten    --      1.4208                 2.8375                 2.7367

                      4                      5                      6
                      A                      A                      A
 Frequencies --    254.8457               362.8321               434.4745
 Red. masses --      4.9623                 7.3904                 3.8204
 Frc consts  --      0.1899                 0.5732                 0.4249
 IR Inten    --      1.7376                12.1374                 0.5134

                      7                      8                      9
                      A                      A                      A
 Frequencies --    442.6910               529.9697               550.9994
 Red. masses --      9.7751                 5.5888                 3.7416
 Frc consts  --      1.1287                 0.9249                 0.6693
 IR Inten    --      2.7090                 3.7486                 0.5769

                     10                     11                     12
                      A                      A                      A
 Frequencies --    576.7682               609.9229               650.6413
 Red. masses --      7.5453                 1.2442                 6.2287
 Frc consts  --      1.4789                 0.2727                 1.5536
 IR Inten    --      6.0010                76.5463                67.5156

                     13                     14                     15
                      A                      A                      A
 Frequencies --    729.2081               762.0018               809.1165
 Red. masses --      3.3498                 4.6415                 1.1704
 Frc consts  --      1.0495                 1.5879                 0.4514
 IR Inten    --     58.6593                27.2776               122.1655

                     16                     17                     18
                      A                      A                      A
 Frequencies --    816.4322               831.6822               878.1130
 Red. masses --      7.8823                 1.3295                 7.0621
 Frc consts  --      3.0956                 0.5418                 3.2084
 IR Inten    --     27.9585                 0.8753                 7.8621

                     19                     20                     21
                      A                      A                      A
 Frequencies --    940.0162               997.2837              1074.0043
 Red. masses --      1.3752                 1.3391                 2.3659
 Frc consts  --      0.7159                 0.7847                 1.6079
 IR Inten    --      0.0039                 0.8133                 1.8301

                     22                     23                     24
                      A                      A                      A
 Frequencies --   1117.0624              1160.3302              1200.2979
 Red. masses --      3.3167                 1.4311                 1.8284
 Frc consts  --      2.4384                 1.1352                 1.5520
 IR Inten    --     62.5163                 3.6304               362.1447

                     25                     26                     27
                      A                      A                      A
 Frequencies --   1272.0303              1312.1947              1362.8388
 Red. masses --      1.7301                 2.4181                 2.0097
 Frc consts  --      1.6494                 2.4531                 2.1992
 IR Inten    --      2.1377                93.6689                15.6006

                     28                     29                     30
                      A                      A                      A
 Frequencies --   1383.9895              1464.1995              1493.4764
 Red. masses --      3.1344                 3.3421                 3.1044
 Frc consts  --      3.5373                 4.2215                 4.0796
 IR Inten    --     58.6258               174.3935               214.9826

                     31                     32                     33
                      A                      A                      A
 Frequencies --   1507.9290              1627.2884              1657.1066
 Red. masses --      2.9835                 4.3743                 7.2866
 Frc consts  --      3.9970                 6.8247                11.7889
 IR Inten    --     17.4715                24.8795                 6.1795

                     34                     35                     36
                      A                      A                      A
 Frequencies --   1747.0061              3189.6894              3213.2370
 Red. masses --      7.6847                 1.0893                 1.0918
 Frc consts  --     13.8186                 6.5294                 6.6415
 IR Inten    --    363.3628                 9.1584                13.0674

                     37                     38                     39
                      A                      A                      A
 Frequencies --   3231.2767              3407.0989              3788.6879
 Red. masses --      1.0968                 1.0680                 1.0644
 Frc consts  --      6.7475                 7.3046                 9.0020
 IR Inten    --      3.1217               355.6782               114.2100

 - Thermochemistry -
 -------------------
 Temperature   298.150 Kelvin.  Pressure   1.00000 Atm.
 Atom     1 has atomic number  7 and mass  14.00307

 Molecular mass:   139.02694 amu.
 Principal axes and moments of inertia in atomic units:
                           1         2         3
     Eigenvalues --   762.209341428.985712191.19504
           X            1.00000   0.00212  -0.00000
           Y           -0.00212   1.00000  -0.00001
           Z            0.00000   0.00001   1.00000
 This molecule is an asymmetric top.
 Rotational symmetry number  1.
 Warning -- assumption of classical behavior for rotation
           may cause significant error
 Rotational temperatures (Kelvin)      0.11364     0.06061     0.03953
 Rotational constants (GHZ):           2.36778     1.26295     0.82363
 Zero-point vibrational energy     286266.4 (Joules/Mol)
                                   68.41932 (Kcal/Mol)
 Warning -- explicit consideration of  11 degrees of freedom as
           vibrations may cause significant error
 Vibrational temperatures:    131.27   198.32   351.33   366.67   522.03
          (Kelvin)            625.11   636.93   762.51   792.76   829.84
                              877.54   936.13  1049.17  1096.35  1164.14
                             1174.66  1196.60  1263.41  1352.47  1434.87
                             1545.25  1607.20  1669.45  1726.96  1830.17
                             1887.95  1960.82  1991.25  2106.65  2148.78
                             2169.57  2341.30  2384.20  2513.55  4589.25
                             4623.13  4649.08  4902.05  5451.07

 Zero-point correction=                           0.109033 (Hartree/Particle)
 Thermal correction to Energy=                    0.116708
 Thermal correction to Enthalpy=                  0.117652
 Thermal correction to Gibbs Free Energy=         0.076355
 Sum of electronic and zero-point Energies=           -511.823704
 Sum of electronic and thermal Energies=              -511.816029
 Sum of electronic and thermal Enthalpies=            -511.815085
 Sum of electronic and thermal Free Energies=         -511.856381

                     E (Thermal)             CV                S
                      KCal/Mol        Cal/Mol-Kelvin    Cal/Mol-Kelvin
 Total                   73.235             29.626             86.916
 Electronic               0.000              0.000              0.000
 Translational            0.889              2.981             40.700
 Rotational               0.889              2.981             29.258
 Vibrational             71.458             23.665             16.958
 Vibration     1          0.602              1.955              3.633
 Vibration     2          0.614              1.916              2.834
 Vibration     3          0.660              1.772              1.772
 Vibration     4          0.665              1.755              1.697
 Vibration     5          0.737              1.549              1.110
 Vibration     6          0.795              1.395              0.844
 Vibration     7          0.802              1.377              0.818
 Vibration     8          0.885              1.184              0.587
 Vibration     9          0.906              1.137              0.542
 Vibration    10          0.933              1.082              0.491
 Vibration    11          0.969              1.011              0.433

 Optimization completed.
    -- Stationary point found.
 Normal termination of Gaussian 09 at Wed Dec 18 00:22:28 2024.
