 Gaussian 09, Revision E.01,
 Gaussian 09:  ES64L-G09RevE.01 30-Nov-2015

 -----------------------------------------------------
 # opt freq b3pw91/6-31+g(d,p) EmpiricalDispersion=GD3
 -----------------------------------------------------

 ----------
 [No Title]
 ----------
 Symbolic Z-matrix:
 Charge =  1 Multiplicity = 1

 SCF Done:  E(RB3PW91) =  -512.295792764     A.U. after   14 cycles
 SCF Done:  E(RB3PW91) =  -512.295804358     A.U. after   10 cycles
 SCF Done:  E(RB3PW91) =  -512.295805257     A.U. after    9 cycles
 SCF Done:  E(RB3PW91) =  -512.295805054     A.U. after    8 cycles
 SCF Done:  E(RB3PW91) =  -512.295805336     A.U. after    8 cycles
 Optimization completed.
    -- Stationary point found.
 Normal termination of Gaussian 09 at Wed Dec 18 00:25:00 2024.

 ----------------------------------------------------------------------
 #N Geom=AllCheck Guess=TCheck SCRF=Check GenChk RB3PW91/6-31+G(d,p) Fr
 eq
 ----------------------------------------------------------------------

 Structure from the checkpoint file:  "B3PW91D33HPA2.chk"
 ----------
 [No Title]
 ----------
 Charge =  1 Multiplicity = 1

                         Standard orientation:
 ---------------------------------------------------------------------
 Center     Atomic      Atomic             Coordinates (Angstroms)
 Number     Number       Type             X           Y           Z
 ---------------------------------------------------------------------
      1          7           0       -0.508919   -1.352427   -0.000023
      2          6           0       -1.838399   -1.418935   -0.000032
      3          6           0       -2.565859   -0.225556    0.000012
      4          6           0       -1.896064    0.982072    0.000066
      5          6           0       -0.481471    1.022082    0.000075
      6          6           0        0.206639   -0.199670    0.000030
      7          6           0        1.678275   -0.423634    0.000031
      8          8           0        2.156311   -1.531661   -0.000150
      9          8           0        2.362776    0.728426   -0.000087
     10          8           0        0.089797    2.214397    0.000132
     11          1           0        0.059483   -2.204482   -0.000053
     12          1           0       -2.288704   -2.404369   -0.000074
     13          1           0       -3.649342   -0.262889    0.000004
     14          1           0       -2.430485    1.927262    0.000102
     15          1           0        3.319915    0.549525   -0.000219
     16          1           0        1.061772    2.154507    0.000144
 ---------------------------------------------------------------------

 SCF Done:  E(RB3PW91) =  -512.295805336     A.U. after    1 cycles

 The electronic state is 1-A.
 Alpha  occ. eigenvalues --  -19.39125 -19.37045 -19.32918 -14.62739 -10.51172
 Alpha  occ. eigenvalues --  -10.46938 -10.44766 -10.44349 -10.40245 -10.40058
 Alpha  occ. eigenvalues --   -1.31464  -1.27718  -1.23385  -1.21290  -1.02970
 Alpha  occ. eigenvalues --   -1.00716  -0.90115  -0.86976  -0.84350  -0.78908
 Alpha  occ. eigenvalues --   -0.75856  -0.72238  -0.70256  -0.67905  -0.67439
 Alpha  occ. eigenvalues --   -0.67425  -0.62884  -0.61411  -0.60573  -0.59755
 Alpha  occ. eigenvalues --   -0.59519  -0.55081  -0.52122  -0.50027  -0.48412
 Alpha  occ. eigenvalues --   -0.45071
 Alpha virt. eigenvalues --   -0.27837  -0.22692  -0.15116  -0.14039  -0.12516
 Alpha virt. eigenvalues --   -0.10228  -0.09912  -0.08630  -0.07796  -0.07325
 Alpha virt. eigenvalues --   -0.05117  -0.05068  -0.04218  -0.03561  -0.03151

 Mulliken charges:
               1
     1  N   -0.144361
     2  C   -0.221836
     3  C    0.132663
     4  C    0.017401
     5  C    0.351649
     6  C    0.048578
     7  C    0.313240
     8  O   -0.419102
     9  O   -0.565054
    10  O   -0.480094
    11  H    0.384756
    12  H    0.232970
    13  H    0.232774
    14  H    0.231805
    15  H    0.450749
    16  H    0.433862
 Sum of Mulliken charges =   1.00000

 Dipole moment (field-independent basis, Debye):
    X=             -2.5710    Y=             -1.1074    Z=              0.0001  Tot=              2.7993
 Quadrupole moment (field-independent basis, Debye-Ang):
   XX=            -24.9150   YY=            -44.0324   ZZ=            -55.9424
   XY=              9.7701   XZ=             -0.0003   YZ=              0.0001

  Exact polarizability: 109.516   1.405  93.403  -0.001   0.002  40.413
 Approx polarizability: 170.323   0.728 169.060  -0.002   0.006  58.880

                      1                      2                      3
                      A                      A                      A
 Frequencies --     93.2939               134.7370               218.2915
 Red. masses --     10.3925                 4.5215                 6.3145
 Frc consts  --      0.0533                 0.0484                 0.1773
 IR Inten    --      4.6175                 0.0205                 7.4979

                      4                      5                      6
                      A                      A                      A
 Frequencies --    245.6287               361.9014               413.2802
 Red. masses --      4.7628                 7.7325                 6.9687
 Frc consts  --      0.1693                 0.5967                 0.7013
 IR Inten    --      2.2704                 6.7656                13.3190

                      7                      8                      9
                      A                      A                      A
 Frequencies --    413.7064               544.6947               548.9182
 Red. masses --      3.3267                 2.9045                 5.8980
 Frc consts  --      0.3355                 0.5077                 1.0471
 IR Inten    --     10.5041                 6.0410                 2.1563

                     10                     11                     12
                      A                      A                      A
 Frequencies --    571.4258               587.5963               613.3526
 Red. masses --      6.7876                 1.3675                 1.1087
 Frc consts  --      1.3058                 0.2782                 0.2457
 IR Inten    --     12.5896               128.2308                57.9967

                     13                     14                     15
                      A                      A                      A
 Frequencies --    633.9800               677.3018               753.7291
 Red. masses --      5.2474                 3.0328                 4.5988
 Frc consts  --      1.2426                 0.8197                 1.5393
 IR Inten    --     32.4467                99.7510                15.1927

                     16                     17                     18
                      A                      A                      A
 Frequencies --    781.0790               806.5572               883.8758
 Red. masses --      9.6181                 1.3543                 5.9234
 Frc consts  --      3.4572                 0.5191                 2.7265
 IR Inten    --     20.2656                76.5628                19.2112

                     19                     20                     21
                      A                      A                      A
 Frequencies --    893.9821               973.8362              1017.7276
 Red. masses --      1.2640                 1.3123                 1.3199
 Frc consts  --      0.5952                 0.7333                 0.8055
 IR Inten    --      9.8404                12.3561                 0.0053

                     22                     23                     24
                      A                      A                      A
 Frequencies --   1075.0564              1123.1704              1166.2927
 Red. masses --      2.3942                 2.1358                 2.7733
 Frc consts  --      1.6303                 1.5875                 2.2226
 IR Inten    --     19.7857                13.5674                96.2884

                     25                     26                     27
                      A                      A                      A
 Frequencies --   1190.0430              1253.3607              1269.3461
 Red. masses --      1.3044                 1.3029                 1.4820
 Frc consts  --      1.0884                 1.2059                 1.4068
 IR Inten    --     80.4019                27.6629               244.5635

                     28                     29                     30
                      A                      A                      A
 Frequencies --   1341.1929              1368.2846              1401.7722
 Red. masses --      3.7032                 1.5152                 2.2576
 Frc consts  --      3.9248                 1.6714                 2.6137
 IR Inten    --    137.3517                47.0708                74.3474

                     31                     32                     33
                      A                      A                      A
 Frequencies --   1455.7190              1538.8343              1574.2883
 Red. masses --      5.1488                 3.0252                 2.6248
 Frc consts  --      6.4285                 4.2207                 3.8328
 IR Inten    --     17.7123                43.0350               264.1094

                     34                     35                     36
                      A                      A                      A
 Frequencies --   1641.8488              1689.4630              1849.4489
 Red. masses --      6.1210                 5.4530                10.5941
 Frc consts  --      9.7217                 9.1702                21.3501
 IR Inten    --     23.7469                28.5495               336.6150

                     37                     38                     39
                      A                      A                      A
 Frequencies --   3233.7549              3250.8019              3264.1527
 Red. masses --      1.0927                 1.0949                 1.0992
 Frc consts  --      6.7324                 6.8172                 6.9004
 IR Inten    --      5.7224                 8.8181                19.2280

                     40                     41                     42
                      A                      A                      A
 Frequencies --   3475.3399              3704.6203              3755.3308
 Red. masses --      1.0801                 1.0666                 1.0652
 Frc consts  --      7.6862                 8.6246                 8.8504
 IR Inten    --    187.5768               312.0890               201.4012

 - Thermochemistry -
 -------------------
 Temperature   298.150 Kelvin.  Pressure   1.00000 Atm.
 Atom     1 has atomic number  7 and mass  14.00307

 Molecular mass:   140.03477 amu.
 Principal axes and moments of inertia in atomic units:
                           1         2         3
     Eigenvalues --   788.879421443.387512232.26693
           X            0.99951   0.03117   0.00002
           Y           -0.03117   0.99951  -0.00005
           Z           -0.00002   0.00005   1.00000
 This molecule is an asymmetric top.
 Rotational symmetry number  1.
 Warning -- assumption of classical behavior for rotation
           may cause significant error
 Rotational temperatures (Kelvin)      0.10979     0.06001     0.03880
 Rotational constants (GHZ):           2.28773     1.25035     0.80848
 Zero-point vibrational energy     321741.7 (Joules/Mol)
                                   76.89812 (Kcal/Mol)
 Warning -- explicit consideration of  12 degrees of freedom as
           vibrations may cause significant error
 Vibrational temperatures:    134.23   193.86   314.07   353.40   520.69
          (Kelvin)            594.62   595.23   783.69   789.77   822.15
                              845.42   882.48   912.15   974.49  1084.45
                             1123.80  1160.45  1271.70  1286.24  1401.13
                             1464.28  1546.76  1615.99  1678.03  1712.20
                             1803.30  1826.30  1929.68  1968.65  2016.84
                             2094.45  2214.04  2265.05  2362.25  2430.76
                             2660.94  4652.65  4677.17  4696.38  5000.23
                             5330.12  5403.08

 Zero-point correction=                           0.122545 (Hartree/Particle)
 Thermal correction to Energy=                    0.130505
 Thermal correction to Enthalpy=                  0.131449
 Thermal correction to Gibbs Free Energy=         0.089655
 Sum of electronic and zero-point Energies=           -512.173260
 Sum of electronic and thermal Energies=              -512.165300
 Sum of electronic and thermal Enthalpies=            -512.164356
 Sum of electronic and thermal Free Energies=         -512.206150

                     E (Thermal)             CV                S
                      KCal/Mol        Cal/Mol-Kelvin    Cal/Mol-Kelvin
 Total                   81.893             30.986             87.963
 Electronic               0.000              0.000              0.000
 Translational            0.889              2.981             40.722
 Rotational               0.889              2.981             29.321
 Vibrational             80.116             25.024             17.921
 Vibration     1          0.602              1.954              3.590
 Vibration     2          0.613              1.919              2.877
 Vibration     3          0.646              1.813              1.973
 Vibration     4          0.660              1.770              1.762
 Vibration     5          0.736              1.551              1.114
 Vibration     6          0.777              1.441              0.915
 Vibration     7          0.777              1.440              0.914
 Vibration     8          0.900              1.151              0.555
 Vibration     9          0.904              1.142              0.546
 Vibration    10          0.928              1.093              0.502
 Vibration    11          0.945              1.058              0.471
 Vibration    12          0.973              1.004              0.427

 Optimization completed.
    -- Stationary point found.
 Normal termination of Gaussian 09 at Wed Dec 18 00:26:04 2024.
