 Gaussian 09, Revision E.01,
 Gaussian 09:  ES64L-G09RevE.01 30-Nov-2015

 --------------------------------------------------------
 # opt freq cam-b3lyp/6-31+g(d,p) empiricaldispersion=gd3
 --------------------------------------------------------

 ----------
 [No Title]
 ----------
 Symbolic Z-matrix:
 Charge =  0 Multiplicity = 1

 SCF Done:  E(RCAM-B3LYP) =  -511.906275463     A.U. after   16 cycles
 SCF Done:  E(RCAM-B3LYP) =  -511.906450021     A.U. after   13 cycles
 SCF Done:  E(RCAM-B3LYP) =  -511.906472967     A.U. after   12 cycles
 SCF Done:  E(RCAM-B3LYP) =  -511.906481279     A.U. after   11 cycles
 SCF Done:  E(RCAM-B3LYP) =  -511.906483038     A.U. after   10 cycles
 SCF Done:  E(RCAM-B3LYP) =  -511.906482622     A.U. after   10 cycles
 SCF Done:  E(RCAM-B3LYP) =  -511.906483267     A.U. after    9 cycles
 Optimization completed.
    -- Stationary point found.
 Normal termination of Gaussian 09 at Tue Dec 17 14:46:44 2024.

 ----------------------------------------------------------------------
 #N Geom=AllCheck Guess=TCheck SCRF=Check GenChk RCAM-B3LYP/6-31+G(d,p)
  Freq
 ----------------------------------------------------------------------

 Structure from the checkpoint file:  "camb3lypD33HPA.chk"
 ----------
 [No Title]
 ----------
 Charge =  0 Multiplicity = 1

                         Standard orientation:
 ---------------------------------------------------------------------
 Center     Atomic      Atomic             Coordinates (Angstroms)
 Number     Number       Type             X           Y           Z
 ---------------------------------------------------------------------
      1          7           0       -0.439545   -1.444188    0.000018
      2          6           0       -1.758743   -1.479093    0.000028
      3          6           0       -2.545775   -0.317286    0.000024
      4          6           0       -1.928812    0.914470    0.000008
      5          6           0       -0.529219    0.968565   -0.000005
      6          6           0        0.172774   -0.252158    0.000002
      7          6           0        1.649738   -0.222899   -0.000005
      8          8           0        2.293539    0.823322   -0.000022
      9          8           0        2.247532   -1.409528   -0.000010
     10          8           0        0.060313    2.169608   -0.000025
     11          1           0       -2.220263   -2.462234    0.000041
     12          1           0       -3.627899   -0.394793    0.000033
     13          1           0       -2.485284    1.844981    0.000002
     14          1           0        3.204805   -1.247308   -0.000022
     15          1           0        1.034594    2.031864   -0.000038
 ---------------------------------------------------------------------

 SCF Done:  E(RCAM-B3LYP) =  -511.906483267     A.U. after    1 cycles

 The electronic state is 1-A.
 Alpha  occ. eigenvalues --  -19.29893 -19.26885 -19.24979 -14.43335 -10.43008
 Alpha  occ. eigenvalues --  -10.36245 -10.32598 -10.31168 -10.30045 -10.29723
 Alpha  occ. eigenvalues --   -1.22512  -1.16923  -1.12453  -1.05277  -0.90735
 Alpha  occ. eigenvalues --   -0.87456  -0.78031  -0.72806  -0.71510  -0.63867
 Alpha  occ. eigenvalues --   -0.62969  -0.59375  -0.57475  -0.56003  -0.55508
 Alpha  occ. eigenvalues --   -0.50770  -0.50250  -0.49098  -0.47684  -0.46944
 Alpha  occ. eigenvalues --   -0.45307  -0.41393  -0.38439  -0.36124  -0.33876
 Alpha  occ. eigenvalues --   -0.31028
 Alpha virt. eigenvalues --   -0.03371   0.01633   0.02398   0.03221   0.05144
 Alpha virt. eigenvalues --    0.05643   0.06983   0.07409   0.07732   0.07986
 Alpha virt. eigenvalues --    0.09877   0.10286   0.10995   0.11534   0.12764

 Mulliken charges:
               1
     1  N   -0.226239
     2  C   -0.169436
     3  C    0.097183
     4  C   -0.021988
     5  C    0.069461
     6  C    0.045509
     7  C    0.530194
     8  O   -0.570852
     9  O   -0.437690
    10  O   -0.569161
    11  H    0.137949
    12  H    0.148219
    13  H    0.160058
    14  H    0.391391
    15  H    0.415402
 Sum of Mulliken charges =   0.00000

 Dipole moment (field-independent basis, Debye):
    X=             -1.2674    Y=             -0.4926    Z=              0.0000  Tot=              1.3597
 Quadrupole moment (field-independent basis, Debye-Ang):
   XX=            -43.7973   YY=            -63.1246   ZZ=            -58.4469
   XY=             -2.3383   XZ=             -0.0001   YZ=              0.0000

  Exact polarizability: 114.572   3.416  95.619  -0.001  -0.000  46.262
 Approx polarizability: 131.006   6.360 126.978  -0.001  -0.001  58.117

                      1                      2                      3
                      A                      A                      A
 Frequencies --     89.4430               141.8870               248.8516
 Red. masses --      9.0515                 5.9546                 6.4339
 Frc consts  --      0.0427                 0.0706                 0.2347
 IR Inten    --      1.1813                 3.2042                 2.7441

                      4                      5                      6
                      A                      A                      A
 Frequencies --    260.2076               368.5749               444.7652
 Red. masses --      4.9596                 7.5011                 3.7678
 Frc consts  --      0.1979                 0.6004                 0.4391
 IR Inten    --      1.4559                11.6097                 0.5773

                      7                      8                      9
                      A                      A                      A
 Frequencies --    445.4346               535.4055               562.5963
 Red. masses --      9.6742                 5.5563                 3.6794
 Frc consts  --      1.1309                 0.9384                 0.6862
 IR Inten    --      3.1304                 4.0006                 1.3841

                     10                     11                     12
                      A                      A                      A
 Frequencies --    585.0074               616.3514               660.0317
 Red. masses --      7.5436                 1.2562                 6.1361
 Frc consts  --      1.5211                 0.2812                 1.5750
 IR Inten    --      6.1547                78.1766                71.8185

                     13                     14                     15
                      A                      A                      A
 Frequencies --    739.6833               771.0507               785.9822
 Red. masses --      3.2202                 4.5940                 1.0774
 Frc consts  --      1.0381                 1.6092                 0.3922
 IR Inten    --     53.1131                29.1821               136.2026

                     16                     17                     18
                      A                      A                      A
 Frequencies --    833.9905               842.7455               888.5536
 Red. masses --      9.2503                 1.4333                 6.9886
 Frc consts  --      3.7908                 0.5998                 3.2509
 IR Inten    --     17.6758                13.7393                 8.9268

                     19                     20                     21
                      A                      A                      A
 Frequencies --    962.4372              1023.5368              1083.8615
 Red. masses --      1.3804                 1.3571                 2.3726
 Frc consts  --      0.7534                 0.8376                 1.6422
 IR Inten    --      0.1216                 0.7251                 4.1171

                     22                     23                     24
                      A                      A                      A
 Frequencies --   1131.4524              1167.1331              1208.0055
 Red. masses --      2.9996                 1.4391                 1.9981
 Frc consts  --      2.2625                 1.1550                 1.7179
 IR Inten    --     54.1951                 1.2860               393.3443

                     25                     26                     27
                      A                      A                      A
 Frequencies --   1281.6506              1311.5548              1369.6517
 Red. masses --      1.7423                 2.6684                 3.5068
 Frc consts  --      1.6862                 2.7044                 3.8760
 IR Inten    --      3.9311                58.6417                72.1903

                     28                     29                     30
                      A                      A                      A
 Frequencies --   1376.8413              1476.4461              1511.4345
 Red. masses --      1.5780                 3.3219                 3.1993
 Frc consts  --      1.7625                 4.2665                 4.3061
 IR Inten    --     44.3871               177.1790               219.7894

                     31                     32                     33
                      A                      A                      A
 Frequencies --   1526.3534              1653.7927              1684.6259
 Red. masses --      3.0465                 4.7942                 7.3862
 Frc consts  --      4.1817                 7.7255                12.3504
 IR Inten    --     11.6109                21.1309                 5.3694

                     34                     35                     36
                      A                      A                      A
 Frequencies --   1774.3593              3206.9247              3227.9674
 Red. masses --      8.1756                 1.0900                 1.0922
 Frc consts  --     15.1654                 6.6047                 6.7055
 IR Inten    --    393.9897                 7.2386                 9.7854

                     37                     38                     39
                      A                      A                      A
 Frequencies --   3243.9175              3490.9904              3797.4275
 Red. masses --      1.0977                 1.0673                 1.0645
 Frc consts  --      6.8056                 7.6634                 9.0443
 IR Inten    --      2.1585               352.8803               128.8034

 - Thermochemistry -
 -------------------
 Temperature   298.150 Kelvin.  Pressure   1.00000 Atm.
 Atom     1 has atomic number  7 and mass  14.00307

 Molecular mass:   139.02694 amu.
 Principal axes and moments of inertia in atomic units:
                           1         2         3
     Eigenvalues --   759.405711426.220112185.62582
           X            1.00000   0.00222   0.00001
           Y           -0.00222   1.00000   0.00001
           Z           -0.00001  -0.00001   1.00000
 This molecule is an asymmetric top.
 Rotational symmetry number  1.
 Warning -- assumption of classical behavior for rotation
           may cause significant error
 Rotational temperatures (Kelvin)      0.11405     0.06073     0.03963
 Rotational constants (GHZ):           2.37652     1.26540     0.82573
 Zero-point vibrational energy     289083.1 (Joules/Mol)
                                   69.09253 (Kcal/Mol)
 Warning -- explicit consideration of  11 degrees of freedom as
           vibrations may cause significant error
 Vibrational temperatures:    128.69   204.14   358.04   374.38   530.30
          (Kelvin)            639.92   640.88   770.33   809.45   841.69
                              886.79   949.64  1064.24  1109.37  1130.85
                             1199.92  1212.52  1278.43  1384.73  1472.64
                             1559.43  1627.91  1679.24  1738.05  1844.01
                             1887.03  1970.62  1980.97  2124.27  2174.61
                             2196.08  2379.44  2423.80  2552.90  4614.04
                             4644.32  4667.27  5022.75  5463.64

 Zero-point correction=                           0.110106 (Hartree/Particle)
 Thermal correction to Energy=                    0.117699
 Thermal correction to Enthalpy=                  0.118643
 Thermal correction to Gibbs Free Energy=         0.077487
 Sum of electronic and zero-point Energies=           -511.796377
 Sum of electronic and thermal Energies=              -511.788784
 Sum of electronic and thermal Enthalpies=            -511.787840
 Sum of electronic and thermal Free Energies=         -511.828996

                     E (Thermal)             CV                S
                      KCal/Mol        Cal/Mol-Kelvin    Cal/Mol-Kelvin
 Total                   73.857             29.308             86.621
 Electronic               0.000              0.000              0.000
 Translational            0.889              2.981             40.700
 Rotational               0.889              2.981             29.250
 Vibrational             72.080             23.346             16.671
 Vibration     1          0.602              1.957              3.672
 Vibration     2          0.615              1.911              2.778
 Vibration     3          0.662              1.765              1.739
 Vibration     4          0.668              1.745              1.660
 Vibration     5          0.741              1.537              1.086
 Vibration     6          0.804              1.372              0.812
 Vibration     7          0.805              1.371              0.810
 Vibration     8          0.890              1.172              0.575
 Vibration     9          0.918              1.112              0.519
 Vibration    10          0.942              1.064              0.476
 Vibration    11          0.976              0.997              0.422

 Optimization completed.
    -- Stationary point found.
 Normal termination of Gaussian 09 at Tue Dec 17 14:47:24 2024.
