 Gaussian 09, Revision E.01,
 Gaussian 09:  ES64L-G09RevE.01 30-Nov-2015

 --------------------------------------------------------
 # opt freq cam-b3lyp/6-31+g(d,p) empiricaldispersion=gd3
 --------------------------------------------------------

 ----------
 [No Title]
 ----------
 Symbolic Z-matrix:
 Charge =  1 Multiplicity = 1

 SCF Done:  E(RCAM-B3LYP) =  -512.264272438     A.U. after   15 cycles
 SCF Done:  E(RCAM-B3LYP) =  -512.264424236     A.U. after   12 cycles
 SCF Done:  E(RCAM-B3LYP) =  -512.264431796     A.U. after   11 cycles
 SCF Done:  E(RCAM-B3LYP) =  -512.264434246     A.U. after   10 cycles
 SCF Done:  E(RCAM-B3LYP) =  -512.264433672     A.U. after    9 cycles
 SCF Done:  E(RCAM-B3LYP) =  -512.264434527     A.U. after    9 cycles
 Optimization completed.
    -- Stationary point found.
 Normal termination of Gaussian 09 at Tue Dec 17 14:57:45 2024.

 ----------------------------------------------------------------------
 #N Geom=AllCheck Guess=TCheck SCRF=Check GenChk RCAM-B3LYP/6-31+G(d,p)
  Freq
 ----------------------------------------------------------------------

 Structure from the checkpoint file:  "camb3lypD33HPA2.chk"
 ----------
 [No Title]
 ----------
 Charge =  1 Multiplicity = 1

                         Standard orientation:
 ---------------------------------------------------------------------
 Center     Atomic      Atomic             Coordinates (Angstroms)
 Number     Number       Type             X           Y           Z
 ---------------------------------------------------------------------
      1          7           0       -0.513636   -1.351134   -0.000059
      2          6           0       -1.839684   -1.411860   -0.000011
      3          6           0       -2.562490   -0.217813    0.000071
      4          6           0       -1.889709    0.983214    0.000099
      5          6           0       -0.477152    1.017710    0.000046
      6          6           0        0.202544   -0.198979   -0.000036
      7          6           0        1.673968   -0.424592   -0.000106
      8          8           0        2.146917   -1.530890   -0.000099
      9          8           0        2.364019    0.720376    0.000006
     10          8           0        0.097260    2.209804    0.000076
     11          1           0        0.052306   -2.204964   -0.000122
     12          1           0       -2.294817   -2.394444   -0.000039
     13          1           0       -3.645262   -0.251326    0.000112
     14          1           0       -2.418254    1.930865    0.000162
     15          1           0        3.321814    0.540103    0.000028
     16          1           0        1.069241    2.157310    0.000033
 ---------------------------------------------------------------------

 SCF Done:  E(RCAM-B3LYP) =  -512.264434527     A.U. after    1 cycles

 The electronic state is 1-A.
 Alpha  occ. eigenvalues --  -19.47381 -19.44893 -19.41310 -14.71137 -10.60369
 Alpha  occ. eigenvalues --  -10.55558 -10.53277 -10.53198 -10.48856 -10.48561
 Alpha  occ. eigenvalues --   -1.39391  -1.35052  -1.31269  -1.29136  -1.10878
 Alpha  occ. eigenvalues --   -1.08514  -0.97507  -0.94315  -0.91477  -0.85875
 Alpha  occ. eigenvalues --   -0.82799  -0.79136  -0.77045  -0.74846  -0.74674
 Alpha  occ. eigenvalues --   -0.74216  -0.69836  -0.68081  -0.67000  -0.66195
 Alpha  occ. eigenvalues --   -0.65972  -0.61330  -0.58414  -0.55532  -0.54924
 Alpha  occ. eigenvalues --   -0.50138
 Alpha virt. eigenvalues --   -0.23102  -0.17661  -0.11863  -0.10073  -0.09354
 Alpha virt. eigenvalues --   -0.08308  -0.07686  -0.06431  -0.06237  -0.05365
 Alpha virt. eigenvalues --   -0.03000  -0.02992  -0.01894  -0.01611  -0.00429

 Mulliken charges:
               1
     1  N   -0.223858
     2  C   -0.130994
     3  C    0.120610
     4  C   -0.008116
     5  C    0.399379
     6  C    0.084561
     7  C    0.390113
     8  O   -0.442481
     9  O   -0.583803
    10  O   -0.518825
    11  H    0.379429
    12  H    0.220279
    13  H    0.213148
    14  H    0.215808
    15  H    0.450990
    16  H    0.433761
 Sum of Mulliken charges =   1.00000

 Dipole moment (field-independent basis, Debye):
    X=             -2.6713    Y=             -1.2465    Z=             -0.0000  Tot=              2.9478
 Quadrupole moment (field-independent basis, Debye-Ang):
   XX=            -25.5447   YY=            -45.1308   ZZ=            -56.3097
   XY=              9.8642   XZ=             -0.0003   YZ=              0.0004

  Exact polarizability: 106.720   1.255  92.456  -0.002   0.002  40.794
 Approx polarizability: 123.626   0.863 126.133  -0.002   0.003  52.006

                      1                      2                      3
                      A                      A                      A
 Frequencies --     95.2908               139.3834               225.4776
 Red. masses --     10.2686                 4.5323                 6.3525
 Frc consts  --      0.0549                 0.0519                 0.1903
 IR Inten    --      5.2043                 0.0365                 7.5020

                      4                      5                      6
                      A                      A                      A
 Frequencies --    249.7258               367.8152               416.1723
 Red. masses --      4.7739                 7.7610                 6.9503
 Frc consts  --      0.1754                 0.6186                 0.7093
 IR Inten    --      1.9319                 7.0007                14.0441

                      7                      8                      9
                      A                      A                      A
 Frequencies --    421.2677               554.1693               555.3829
 Red. masses --      3.3012                 2.8845                 5.9217
 Frc consts  --      0.3452                 0.5219                 1.0762
 IR Inten    --     10.9665                 7.6320                 2.4822

                     10                     11                     12
                      A                      A                      A
 Frequencies --    578.5137               591.3066               603.0776
 Red. masses --      6.7452                 1.2601                 1.1938
 Frc consts  --      1.3301                 0.2596                 0.2558
 IR Inten    --     12.6685               179.7544                 6.7662

                     13                     14                     15
                      A                      A                      A
 Frequencies --    641.6582               686.9971               761.7632
 Red. masses --      5.1464                 2.9796                 4.5349
 Frc consts  --      1.2484                 0.8285                 1.5504
 IR Inten    --     35.5077               105.7002                15.3685

                     16                     17                     18
                      A                      A                      A
 Frequencies --    793.8233               820.9412               892.5731
 Red. masses --      9.2802                 1.3500                 5.8825
 Frc consts  --      3.4455                 0.5361                 2.7612
 IR Inten    --     19.9434                79.9904                21.6244

                     19                     20                     21
                      A                      A                      A
 Frequencies --    911.2645               999.6280              1040.6673
 Red. masses --      1.2710                 1.3186                 1.3327
 Frc consts  --      0.6218                 0.7763                 0.8504
 IR Inten    --      9.9693                11.6784                 0.0144

                     22                     23                     24
                      A                      A                      A
 Frequencies --   1084.8901              1133.5484              1179.2375
 Red. masses --      2.3702                 2.1020                 2.1604
 Frc consts  --      1.6437                 1.5913                 1.7700
 IR Inten    --     16.8294                18.6469                63.3121

                     25                     26                     27
                      A                      A                      A
 Frequencies --   1196.0898              1262.0404              1278.7602
 Red. masses --      1.5090                 1.3168                 1.4416
 Frc consts  --      1.2719                 1.2357                 1.3889
 IR Inten    --    115.5537                21.1555               260.3280

                     28                     29                     30
                      A                      A                      A
 Frequencies --   1335.5582              1378.8050              1413.5049
 Red. masses --      3.9602                 1.5139                 2.4200
 Frc consts  --      4.1619                 1.6958                 2.8488
 IR Inten    --    140.9035                43.7339                91.9202

                     31                     32                     33
                      A                      A                      A
 Frequencies --   1457.0858              1555.7034              1592.1148
 Red. masses --      4.2762                 3.2294                 2.5481
 Frc consts  --      5.3491                 4.6049                 3.8055
 IR Inten    --     22.6555                78.8031               247.6053

                     34                     35                     36
                      A                      A                      A
 Frequencies --   1666.5362              1715.8213              1874.1767
 Red. masses --      6.4141                 5.4685                10.7938
 Frc consts  --     10.4958                 9.4855                22.3381
 IR Inten    --     28.4284                22.0251               366.8929

                     37                     38                     39
                      A                      A                      A
 Frequencies --   3243.8508              3260.3345              3272.5253
 Red. masses --      1.0935                 1.0956                 1.0998
 Frc consts  --      6.7795                 6.8617                 6.9398
 IR Inten    --      6.8590                 9.9280                21.6083

                     40                     41                     42
                      A                      A                      A
 Frequencies --   3483.2158              3728.5415              3756.4621
 Red. masses --      1.0806                 1.0666                 1.0651
 Frc consts  --      7.7243                 8.7361                 8.8551
 IR Inten    --    205.6582               361.2525               184.6565

 - Thermochemistry -
 -------------------
 Temperature   298.150 Kelvin.  Pressure   1.00000 Atm.
 Atom     1 has atomic number  7 and mass  14.00307

 Molecular mass:   140.03477 amu.
 Principal axes and moments of inertia in atomic units:
                           1         2         3
     Eigenvalues --   785.352701439.174112224.52682
           X            0.99952   0.03103   0.00002
           Y           -0.03103   0.99952  -0.00004
           Z           -0.00003   0.00004   1.00000
 This molecule is an asymmetric top.
 Rotational symmetry number  1.
 Warning -- assumption of classical behavior for rotation
           may cause significant error
 Rotational temperatures (Kelvin)      0.11029     0.06018     0.03894
 Rotational constants (GHZ):           2.29800     1.25401     0.81129
 Zero-point vibrational energy     324281.9 (Joules/Mol)
                                   77.50524 (Kcal/Mol)
 Warning -- explicit consideration of  12 degrees of freedom as
           vibrations may cause significant error
 Vibrational temperatures:    137.10   200.54   324.41   359.30   529.20
          (Kelvin)            598.78   606.11   797.32   799.07   832.35
                              850.76   867.69   923.20   988.43  1096.01
                             1142.13  1181.15  1284.21  1311.10  1438.24
                             1497.29  1560.91  1630.92  1696.66  1720.90
                             1815.79  1839.85  1921.57  1983.79  2033.72
                             2096.42  2238.31  2290.70  2397.77  2468.68
                             2696.52  4667.17  4690.89  4708.43  5011.56
                             5364.53  5404.70

 Zero-point correction=                           0.123512 (Hartree/Particle)
 Thermal correction to Energy=                    0.131380
 Thermal correction to Enthalpy=                  0.132325
 Thermal correction to Gibbs Free Energy=         0.090722
 Sum of electronic and zero-point Energies=           -512.140922
 Sum of electronic and thermal Energies=              -512.133054
 Sum of electronic and thermal Enthalpies=            -512.132110
 Sum of electronic and thermal Free Energies=         -512.173713

                     E (Thermal)             CV                S
                      KCal/Mol        Cal/Mol-Kelvin    Cal/Mol-Kelvin
 Total                   82.442             30.646             87.561
 Electronic               0.000              0.000              0.000
 Translational            0.889              2.981             40.722
 Rotational               0.889              2.981             29.310
 Vibrational             80.665             24.684             17.529
 Vibration     1          0.603              1.953              3.548
 Vibration     2          0.615              1.914              2.812
 Vibration     3          0.650              1.802              1.915
 Vibration     4          0.663              1.763              1.733
 Vibration     5          0.740              1.538              1.089
 Vibration     6          0.779              1.435              0.905
 Vibration     7          0.784              1.424              0.888
 Vibration     8          0.910              1.131              0.536
 Vibration     9          0.911              1.128              0.533
 Vibration    10          0.935              1.078              0.488
 Vibration    11          0.949              1.050              0.465
 Vibration    12          0.961              1.025              0.444

 Optimization completed.
    -- Stationary point found.
 Normal termination of Gaussian 09 at Tue Dec 17 14:58:24 2024.
