 Gaussian 09, Revision E.01,
 Gaussian 09:  ES64L-G09RevE.01 30-Nov-2015

 -----------------------------------------------------
 # opt freq pbepbe/6-31+g(d,p) empiricaldispersion=gd3
 -----------------------------------------------------

 ----------
 [No Title]
 ----------
 Symbolic Z-matrix:
 Charge =  0 Multiplicity = 1

 SCF Done:  E(RPBE-PBE) =  -511.559372467     A.U. after   15 cycles
 SCF Done:  E(RPBE-PBE) =  -511.560906101     A.U. after   12 cycles
 SCF Done:  E(RPBE-PBE) =  -511.560937489     A.U. after   12 cycles
 SCF Done:  E(RPBE-PBE) =  -511.561009356     A.U. after   12 cycles
 SCF Done:  E(RPBE-PBE) =  -511.561013888     A.U. after   10 cycles
 SCF Done:  E(RPBE-PBE) =  -511.561014482     A.U. after   10 cycles
 SCF Done:  E(RPBE-PBE) =  -511.561014124     A.U. after    9 cycles
 SCF Done:  E(RPBE-PBE) =  -511.561014744     A.U. after    9 cycles
 Optimization completed.
    -- Stationary point found.
 Normal termination of Gaussian 09 at Tue Dec 17 14:51:52 2024.

 ----------------------------------------------------------------------
 #N Geom=AllCheck Guess=TCheck SCRF=Check GenChk RPBEPBE/6-31+G(d,p) Fr
 eq
 ----------------------------------------------------------------------

 Structure from the checkpoint file:  "pbeD33HPA.chk"
 ----------
 [No Title]
 ----------
 Charge =  0 Multiplicity = 1

                         Standard orientation:
 ---------------------------------------------------------------------
 Center     Atomic      Atomic             Coordinates (Angstroms)
 Number     Number       Type             X           Y           Z
 ---------------------------------------------------------------------
      1          7           0       -0.447973   -1.465709    0.000017
      2          6           0       -1.782783   -1.481043    0.000029
      3          6           0       -2.568523   -0.305106    0.000026
      4          6           0       -1.939345    0.935444    0.000008
      5          6           0       -0.527437    0.980391   -0.000006
      6          6           0        0.174329   -0.264155   -0.000000
      7          6           0        1.651327   -0.230107   -0.000013
      8          8           0        2.302083    0.836020   -0.000021
      9          8           0        2.263070   -1.429470   -0.000008
     10          8           0        0.085589    2.177504   -0.000024
     11          1           0       -2.256894   -2.468916    0.000043
     12          1           0       -3.660586   -0.375445    0.000037
     13          1           0       -2.496869    1.875820    0.000005
     14          1           0        3.225979   -1.237726   -0.000015
     15          1           0        1.072830    1.981246   -0.000033
 ---------------------------------------------------------------------

 SCF Done:  E(RPBE-PBE) =  -511.561014744     A.U. after    1 cycles

 The electronic state is 1-A.
 Alpha  occ. eigenvalues --  -18.84976 -18.82299 -18.80276 -14.02859 -10.05461
 Alpha  occ. eigenvalues --   -9.99790  -9.96542  -9.95018  -9.94024  -9.93800
 Alpha  occ. eigenvalues --   -1.04151  -0.99467  -0.94964  -0.87935  -0.74627
 Alpha  occ. eigenvalues --   -0.71675  -0.63423  -0.58597  -0.57576  -0.50759
 Alpha  occ. eigenvalues --   -0.49749  -0.46319  -0.44793  -0.42988  -0.42815
 Alpha  occ. eigenvalues --   -0.38475  -0.38232  -0.37233  -0.35798  -0.35247
 Alpha  occ. eigenvalues --   -0.33889  -0.30124  -0.27339  -0.26954  -0.22955
 Alpha  occ. eigenvalues --   -0.22752
 Alpha virt. eigenvalues --   -0.10873  -0.06164  -0.02110  -0.01458  -0.00792
 Alpha virt. eigenvalues --    0.01046   0.01836   0.03601   0.03831   0.04238
 Alpha virt. eigenvalues --    0.06495   0.06545   0.07406   0.07877   0.08700

 Mulliken charges:
               1
     1  N   -0.126684
     2  C   -0.255621
     3  C    0.148319
     4  C   -0.084987
     5  C    0.084853
     6  C   -0.022161
     7  C    0.399137
     8  O   -0.514667
     9  O   -0.377588
    10  O   -0.490984
    11  H    0.145660
    12  H    0.154759
    13  H    0.165565
    14  H    0.376601
    15  H    0.397799
 Sum of Mulliken charges =  -0.00000

 Dipole moment (field-independent basis, Debye):
    X=             -1.1374    Y=             -0.3573    Z=              0.0000  Tot=              1.1922
 Quadrupole moment (field-independent basis, Debye-Ang):
   XX=            -43.8602   YY=            -62.6516   ZZ=            -58.5741
   XY=             -2.4241   XZ=             -0.0001   YZ=              0.0000

  Exact polarizability: 127.657   2.688 102.536  -0.001  -0.001  47.947
 Approx polarizability: 249.204   9.753 228.285  -0.002  -0.001  78.191

                      1                      2                      3
                      A                      A                      A
 Frequencies --     94.3101               134.4623               238.8783
 Red. masses --      7.9418                 6.4732                 6.3473
 Frc consts  --      0.0416                 0.0690                 0.2134
 IR Inten    --      1.5950                 2.4378                 2.9244

                      4                      5                      6
                      A                      A                      A
 Frequencies --    244.8235               355.4616               417.7533
 Red. masses --      4.9994                 7.4562                 3.8757
 Frc consts  --      0.1766                 0.5551                 0.3985
 IR Inten    --      1.7336                12.2578                 0.4075

                      7                      8                      9
                      A                      A                      A
 Frequencies --    433.7363               513.2554               529.2294
 Red. masses --     10.0582                 5.5430                 3.7609
 Frc consts  --      1.1149                 0.8603                 0.6206
 IR Inten    --      2.0420                 3.4976                 0.1744

                     10                     11                     12
                      A                      A                      A
 Frequencies --    558.9980               596.5300               628.2365
 Red. masses --      7.5575                 1.2516                 6.1851
 Frc consts  --      1.3914                 0.2624                 1.4383
 IR Inten    --      5.8797                68.6756                63.1403

                     13                     14                     15
                      A                      A                      A
 Frequencies --    703.6788               735.8860               782.0973
 Red. masses --      3.2878                 4.7529                 9.5433
 Frc consts  --      0.9592                 1.5165                 3.4393
 IR Inten    --     60.9379                20.2819                 8.8939

                     16                     17                     18
                      A                      A                      A
 Frequencies --    791.6455               845.9374               851.5841
 Red. masses --      1.4474                 1.0690                 7.1587
 Frc consts  --      0.5344                 0.4507                 3.0587
 IR Inten    --     53.4441                62.4978                 6.3750

                     19                     20                     21
                      A                      A                      A
 Frequencies --    901.1390               953.7958              1041.6152
 Red. masses --      1.3710                 1.3296                 2.2844
 Frc consts  --      0.6560                 0.7126                 1.4603
 IR Inten    --      0.6668                 0.9268                 1.1871

                     22                     23                     24
                      A                      A                      A
 Frequencies --   1076.8273              1119.1432              1161.2126
 Red. masses --      3.7960                 1.4285                 1.7284
 Frc consts  --      2.5934                 1.0542                 1.3732
 IR Inten    --     91.4365                17.5768               294.7265

                     25                     26                     27
                      A                      A                      A
 Frequencies --   1232.9144              1278.3419              1320.9439
 Red. masses --      1.8140                 2.4050                 1.9861
 Frc consts  --      1.6247                 2.3156                 2.0418
 IR Inten    --      0.1707                97.2607                21.0073

                     28                     29                     30
                      A                      A                      A
 Frequencies --   1358.7452              1416.8634              1443.5469
 Red. masses --      4.1606                 3.6143                 2.8693
 Frc consts  --      4.5256                 4.2750                 3.5228
 IR Inten    --     34.6484               150.8818               180.8419

                     31                     32                     33
                      A                      A                      A
 Frequencies --   1453.0393              1571.5969              1592.4232
 Red. masses --      2.6860                 3.9202                 7.2713
 Frc consts  --      3.3413                 5.7048                10.8638
 IR Inten    --     39.7973                36.8973                 4.3656

                     34                     35                     36
                      A                      A                      A
 Frequencies --   1666.3092              3106.8342              3128.8211
 Red. masses --      6.4126                 1.0885                 1.0748
 Frc consts  --     10.4905                 6.1901                 6.1992
 IR Inten    --    297.1018                 9.0385               346.0157

                     37                     38                     39
                      A                      A                      A
 Frequencies --   3132.2624              3151.0166              3636.8816
 Red. masses --      1.0858                 1.0957                 1.0640
 Frc consts  --      6.2766                 6.4097                 8.2917
 IR Inten    --     53.6075                 4.9004                88.9252

 - Thermochemistry -
 -------------------
 Temperature   298.150 Kelvin.  Pressure   1.00000 Atm.
 Atom     1 has atomic number  7 and mass  14.00307

 Molecular mass:   139.02694 amu.
 Principal axes and moments of inertia in atomic units:
                           1         2         3
     Eigenvalues --   771.574891446.028542217.60343
           X            1.00000   0.00207   0.00001
           Y           -0.00207   1.00000   0.00001
           Z           -0.00001  -0.00001   1.00000
 This molecule is an asymmetric top.
 Rotational symmetry number  1.
 Warning -- assumption of classical behavior for rotation
           may cause significant error
 Rotational temperatures (Kelvin)      0.11226     0.05990     0.03906
 Rotational constants (GHZ):           2.33904     1.24807     0.81383
 Zero-point vibrational energy     276342.0 (Joules/Mol)
                                   66.04733 (Kcal/Mol)
 Warning -- explicit consideration of  11 degrees of freedom as
           vibrations may cause significant error
 Vibrational temperatures:    135.69   193.46   343.69   352.25   511.43
          (Kelvin)            601.05   624.05   738.46   761.44   804.27
                              858.27   903.89  1012.44  1058.77  1125.26
                             1139.00  1217.11  1225.24  1296.54  1372.30
                             1498.65  1549.31  1610.20  1670.72  1773.89
                             1839.25  1900.54  1954.93  2038.55  2076.94
                             2090.60  2261.17  2291.14  2397.44  4470.04
                             4501.67  4506.62  4533.60  5232.65

 Zero-point correction=                           0.105253 (Hartree/Particle)
 Thermal correction to Energy=                    0.113112
 Thermal correction to Enthalpy=                  0.114056
 Thermal correction to Gibbs Free Energy=         0.072461
 Sum of electronic and zero-point Energies=           -511.455762
 Sum of electronic and thermal Energies=              -511.447903
 Sum of electronic and thermal Enthalpies=            -511.446959
 Sum of electronic and thermal Free Energies=         -511.488553

                     E (Thermal)             CV                S
                      KCal/Mol        Cal/Mol-Kelvin    Cal/Mol-Kelvin
 Total                   70.979             30.489             87.544
 Electronic               0.000              0.000              0.000
 Translational            0.889              2.981             40.700
 Rotational               0.889              2.981             29.294
 Vibrational             69.201             24.527             17.550
 Vibration     1          0.603              1.953              3.569
 Vibration     2          0.613              1.919              2.881
 Vibration     3          0.657              1.781              1.811
 Vibration     4          0.660              1.771              1.768
 Vibration     5          0.731              1.564              1.142
 Vibration     6          0.781              1.432              0.900
 Vibration     7          0.794              1.397              0.847
 Vibration     8          0.868              1.221              0.626
 Vibration     9          0.884              1.185              0.589
 Vibration    10          0.915              1.120              0.526
 Vibration    11          0.954              1.039              0.456

 Optimization completed.
    -- Stationary point found.
 Normal termination of Gaussian 09 at Tue Dec 17 14:52:23 2024.
