 Gaussian 09, Revision E.01,
 Gaussian 09:  ES64L-G09RevE.01 30-Nov-2015

 -----------------------------------------------------
 # opt freq pbepbe/6-31+g(d,p) empiricaldispersion=gd3
 -----------------------------------------------------

 ----------
 [No Title]
 ----------
 Symbolic Z-matrix:
 Charge =  1 Multiplicity = 1

 SCF Done:  E(RPBE-PBE) =  -511.918327038     A.U. after   15 cycles
 SCF Done:  E(RPBE-PBE) =  -511.919854019     A.U. after   12 cycles
 SCF Done:  E(RPBE-PBE) =  -511.919894279     A.U. after   11 cycles
 SCF Done:  E(RPBE-PBE) =  -511.919900888     A.U. after   10 cycles
 SCF Done:  E(RPBE-PBE) =  -511.919901246     A.U. after   10 cycles
 SCF Done:  E(RPBE-PBE) =  -511.919901540     A.U. after   10 cycles
 SCF Done:  E(RPBE-PBE) =  -511.919902051     A.U. after    9 cycles
 Optimization completed.
    -- Stationary point found.
 Normal termination of Gaussian 09 at Tue Dec 17 15:00:29 2024.

 ----------------------------------------------------------------------
 #N Geom=AllCheck Guess=TCheck SCRF=Check GenChk RPBEPBE/6-31+G(d,p) Fr
 eq
 ----------------------------------------------------------------------

 Structure from the checkpoint file:  "pbeD33HPA2.chk"
 ----------
 [No Title]
 ----------
 Charge =  1 Multiplicity = 1

                         Standard orientation:
 ---------------------------------------------------------------------
 Center     Atomic      Atomic             Coordinates (Angstroms)
 Number     Number       Type             X           Y           Z
 ---------------------------------------------------------------------
      1          7           0       -0.510591   -1.361531   -0.000045
      2          6           0       -1.851452   -1.428263   -0.000019
      3          6           0       -2.581124   -0.227149    0.000048
      4          6           0       -1.908909    0.989895    0.000086
      5          6           0       -0.486720    1.029637    0.000057
      6          6           0        0.210018   -0.201741   -0.000010
      7          6           0        1.684647   -0.428482   -0.000050
      8          8           0        2.173206   -1.545634   -0.000120
      9          8           0        2.372193    0.741421   -0.000029
     10          8           0        0.094078    2.228176    0.000097
     11          1           0        0.068618   -2.217611   -0.000093
     12          1           0       -2.302984   -2.421580   -0.000052
     13          1           0       -3.672505   -0.265132    0.000069
     14          1           0       -2.449312    1.940872    0.000138
     15          1           0        3.338551    0.553690   -0.000068
     16          1           0        1.077198    2.145391    0.000073
 ---------------------------------------------------------------------

 SCF Done:  E(RPBE-PBE) =  -511.919902051     A.U. after    1 cycles

 The electronic state is 1-A.
 Alpha  occ. eigenvalues --  -19.02491 -19.00664 -18.96352 -14.30160 -10.22764
 Alpha  occ. eigenvalues --  -10.19015 -10.17054 -10.16360 -10.12530 -10.12433
 Alpha  occ. eigenvalues --   -1.20962  -1.17839  -1.13544  -1.11563  -0.94487
 Alpha  occ. eigenvalues --   -0.92502  -0.82787  -0.79838  -0.77465  -0.72421
 Alpha  occ. eigenvalues --   -0.69516  -0.66093  -0.64339  -0.61808  -0.61654
 Alpha  occ. eigenvalues --   -0.61403  -0.57189  -0.55845  -0.55013  -0.54462
 Alpha  occ. eigenvalues --   -0.54247  -0.49906  -0.47301  -0.46232  -0.43237
 Alpha  occ. eigenvalues --   -0.41660
 Alpha virt. eigenvalues --   -0.30209  -0.25485  -0.18945  -0.16887  -0.15571
 Alpha virt. eigenvalues --   -0.12886  -0.12482  -0.11315  -0.10498  -0.09900
 Alpha virt. eigenvalues --   -0.09192  -0.07720  -0.06433  -0.06296  -0.05408

 Mulliken charges:
               1
     1  N   -0.125646
     2  C   -0.230420
     3  C    0.179092
     4  C   -0.050368
     5  C    0.382686
     6  C    0.048911
     7  C    0.265800
     8  O   -0.391602
     9  O   -0.528586
    10  O   -0.441674
    11  H    0.368970
    12  H    0.222095
    13  H    0.218602
    14  H    0.218694
    15  H    0.440808
    16  H    0.422638
 Sum of Mulliken charges =   1.00000

 Dipole moment (field-independent basis, Debye):
    X=             -2.4358    Y=             -1.0227    Z=              0.0000  Tot=              2.6418
 Quadrupole moment (field-independent basis, Debye-Ang):
   XX=            -25.1891   YY=            -44.1634   ZZ=            -56.3893
   XY=              9.5364   XZ=             -0.0003   YZ=              0.0003

  Exact polarizability: 117.182   1.702  98.230  -0.002   0.002  41.990
 Approx polarizability: 235.408   0.017 229.212  -0.004   0.007  68.303

                      1                      2                      3
                      A                      A                      A
 Frequencies --     94.0271               130.5489               210.5799
 Red. masses --     10.4970                 4.5282                 6.2992
 Frc consts  --      0.0547                 0.0455                 0.1646
 IR Inten    --      3.9292                 0.0023                 7.2883

                      4                      5                      6
                      A                      A                      A
 Frequencies --    237.5402               351.0565               401.1847
 Red. masses --      4.7767                 7.7150                 3.3590
 Frc consts  --      0.1588                 0.5602                 0.3185
 IR Inten    --      2.5905                 6.7775                 9.7384

                      7                      8                      9
                      A                      A                      A
 Frequencies --    401.5674               526.6442               531.3005
 Red. masses --      7.0041                 2.9997                 5.9288
 Frc consts  --      0.6655                 0.4902                 0.9861
 IR Inten    --     12.8597                 4.1150                 2.0472

                     10                     11                     12
                      A                      A                      A
 Frequencies --    554.1528               573.5270               610.7649
 Red. masses --      6.6335                 1.3867                 5.1439
 Frc consts  --      1.2002                 0.2687                 1.1305
 IR Inten    --     13.8594               100.2091                28.1147

                     13                     14                     15
                      A                      A                      A
 Frequencies --    629.3407               654.0067               725.8723
 Red. masses --      1.0941                 2.9903                 4.7123
 Frc consts  --      0.2553                 0.7536                 1.4629
 IR Inten    --     79.8220                92.8274                10.2461

                     16                     17                     18
                      A                      A                      A
 Frequencies --    749.2001               777.2636               859.2023
 Red. masses --      9.2109                 1.3663                 5.9830
 Frc consts  --      3.0461                 0.4863                 2.6023
 IR Inten    --      8.5508                69.5042                16.1286

                     19                     20                     21
                      A                      A                      A
 Frequencies --    862.0370               928.0274               976.4773
 Red. masses --      1.2600                 1.3010                 1.3159
 Frc consts  --      0.5517                 0.6601                 0.7393
 IR Inten    --     10.2996                13.0072                 0.0006

                     22                     23                     24
                      A                      A                      A
 Frequencies --   1043.0305              1089.3213              1113.6644
 Red. masses --      2.3750                 2.1396                 3.2214
 Frc consts  --      1.5223                 1.4959                 2.3540
 IR Inten    --     26.2460                13.4138               126.9945

                     25                     26                     27
                      A                      A                      A
 Frequencies --   1150.4368              1210.5825              1233.0848
 Red. masses --      1.2307                 1.3060                 1.4958
 Frc consts  --      0.9597                 1.1277                 1.3400
 IR Inten    --     49.9166                17.1254               217.2212

                     28                     29                     30
                      A                      A                      A
 Frequencies --   1301.6788              1327.8952              1354.6674
 Red. masses --      3.4974                 1.6495                 2.0035
 Frc consts  --      3.4914                 1.7137                 2.1662
 IR Inten    --    122.7930                57.1466                43.2114

                     31                     32                     33
                      A                      A                      A
 Frequencies --   1421.4033              1487.9888              1520.4097
 Red. masses --      6.0141                 2.8688                 2.6626
 Frc consts  --      7.1591                 3.7424                 3.6264
 IR Inten    --     17.5403                22.6628               243.7623

                     34                     35                     36
                      A                      A                      A
 Frequencies --   1584.8027              1625.7400              1769.5412
 Red. masses --      5.9022                 5.6042                10.2283
 Frc consts  --      8.7341                 8.7270                18.8701
 IR Inten    --     17.8683                28.8728               291.5315

                     37                     38                     39
                      A                      A                      A
 Frequencies --   3155.1814              3173.3946              3187.3110
 Red. masses --      1.0921                 1.0940                 1.0982
 Frc consts  --      6.4056                 6.4913                 6.5734
 IR Inten    --      6.0616                 8.2137                19.3543

                     40                     41                     42
                      A                      A                      A
 Frequencies --   3360.9384              3526.8017              3615.0350
 Red. masses --      1.0795                 1.0664                 1.0650
 Frc consts  --      7.1841                 7.8150                 8.1998
 IR Inten    --    165.5028               274.4636               188.3015

 - Thermochemistry -
 -------------------
 Temperature   298.150 Kelvin.  Pressure   1.00000 Atm.
 Atom     1 has atomic number  7 and mass  14.00307

 Molecular mass:   140.03477 amu.
 Principal axes and moments of inertia in atomic units:
                           1         2         3
     Eigenvalues --   800.437701460.712632261.15033
           X            0.99951   0.03115   0.00002
           Y           -0.03115   0.99951  -0.00004
           Z           -0.00002   0.00004   1.00000
 This molecule is an asymmetric top.
 Rotational symmetry number  1.
 Warning -- assumption of classical behavior for rotation
           may cause significant error
 Rotational temperatures (Kelvin)      0.10821     0.05930     0.03831
 Rotational constants (GHZ):           2.25469     1.23552     0.79815
 Zero-point vibrational energy     311251.8 (Joules/Mol)
                                   74.39096 (Kcal/Mol)
 Warning -- explicit consideration of  12 degrees of freedom as
           vibrations may cause significant error
 Vibrational temperatures:    135.28   187.83   302.98   341.77   505.09
          (Kelvin)            577.21   577.77   757.72   764.42   797.30
                              825.18   878.75   905.48   940.97  1044.37
                             1077.93  1118.31  1236.20  1240.28  1335.22
                             1404.93  1500.69  1567.29  1602.31  1655.22
                             1741.76  1774.13  1872.82  1910.54  1949.06
                             2045.08  2140.88  2187.53  2280.17  2339.07
                             2545.97  4539.60  4565.80  4585.82  4835.63
                             5074.27  5201.22

 Zero-point correction=                           0.118550 (Hartree/Particle)
 Thermal correction to Energy=                    0.126714
 Thermal correction to Enthalpy=                  0.127658
 Thermal correction to Gibbs Free Energy=         0.085508
 Sum of electronic and zero-point Energies=           -511.801353
 Sum of electronic and thermal Energies=              -511.793188
 Sum of electronic and thermal Enthalpies=            -511.792244
 Sum of electronic and thermal Free Energies=         -511.834394

                     E (Thermal)             CV                S
                      KCal/Mol        Cal/Mol-Kelvin    Cal/Mol-Kelvin
 Total                   79.514             31.925             88.713
 Electronic               0.000              0.000              0.000
 Translational            0.889              2.981             40.722
 Rotational               0.889              2.981             29.360
 Vibrational             77.737             25.964             18.631
 Vibration     1          0.603              1.953              3.574
 Vibration     2          0.612              1.923              2.938
 Vibration     3          0.643              1.825              2.039
 Vibration     4          0.656              1.783              1.821
 Vibration     5          0.728              1.573              1.161
 Vibration     6          0.767              1.468              0.958
 Vibration     7          0.767              1.467              0.957
 Vibration     8          0.882              1.191              0.595
 Vibration     9          0.886              1.181              0.584
 Vibration    10          0.910              1.131              0.536
 Vibration    11          0.930              1.089              0.498
 Vibration    12          0.970              1.009              0.432

 Optimization completed.
    -- Stationary point found.
 Normal termination of Gaussian 09 at Tue Dec 17 15:01:01 2024.
