 Gaussian 09, Revision E.01,
 Gaussian 09:  ES64L-G09RevE.01 30-Nov-2015

 ----------------------------
 # opt freq m062x/aug-cc-pvdz
 ----------------------------

 ----------
 [No Title]
 ----------
 Symbolic Z-matrix:
 Charge =  0 Multiplicity = 1

 SCF Done:  E(RM062X) =  -476.081698863     A.U. after   15 cycles
 SCF Done:  E(RM062X) =  -476.081749330     A.U. after   12 cycles
 SCF Done:  E(RM062X) =  -476.081752690     A.U. after   11 cycles
 SCF Done:  E(RM062X) =  -476.081753592     A.U. after   12 cycles
 SCF Done:  E(RM062X) =  -476.081753173     A.U. after   12 cycles
 SCF Done:  E(RM062X) =  -476.081753610     A.U. after   10 cycles
 Optimization completed.
    -- Stationary point found.
 Normal termination of Gaussian 09 at Sun Dec 15 21:37:08 2024.

 ----------------------------------------------------------------------
 #N Geom=AllCheck Guess=TCheck SCRF=Check GenChk RM062X/Aug-CC-pVDZ Fre
 q
 ----------------------------------------------------------------------

 Structure from the checkpoint file:  "pvdzAnthranilic.chk"
 ----------
 [No Title]
 ----------
 Charge =  0 Multiplicity = 1

                         Standard orientation:
 ---------------------------------------------------------------------
 Center     Atomic      Atomic             Coordinates (Angstroms)
 Number     Number       Type             X           Y           Z
 ---------------------------------------------------------------------
      1          6           0       -1.851039   -1.523001    0.000004
      2          6           0       -2.580091   -0.323483    0.000017
      3          6           0       -1.938820    0.899767    0.000019
      4          6           0       -0.527120    0.984061    0.000007
      5          6           0        0.210176   -0.228839   -0.000009
      6          6           0       -0.469841   -1.459958   -0.000009
      7          6           0        1.680335   -0.198705   -0.000025
      8          8           0        2.250059   -1.424969   -0.000011
      9          7           0        0.071247    2.204801    0.000013
     10          8           0        2.374914    0.802795   -0.000005
     11          1           0       -2.362723   -2.482426    0.000003
     12          1           0       -3.669567   -0.350889    0.000027
     13          1           0       -2.517348    1.823328    0.000030
     14          1           0        0.120312   -2.373096   -0.000020
     15          1           0        3.205970   -1.275405   -0.000003
     16          1           0        1.078669    2.267832   -0.000019
     17          1           0       -0.495429    3.035394   -0.000003
 ---------------------------------------------------------------------

 SCF Done:  E(RM062X) =  -476.081753610     A.U. after    2 cycles

 The electronic state is 1-A.
 Alpha  occ. eigenvalues --  -19.69020 -19.63923 -14.77391 -10.69151 -10.61375
 Alpha  occ. eigenvalues --  -10.56479 -10.56328 -10.56197 -10.55444 -10.54659
 Alpha  occ. eigenvalues --   -1.24140  -1.14323  -1.04335  -0.95229  -0.87038
 Alpha  occ. eigenvalues --   -0.83220  -0.75147  -0.70775  -0.67752  -0.61451
 Alpha  occ. eigenvalues --   -0.60033  -0.58571  -0.57735  -0.54040  -0.53084
 Alpha  occ. eigenvalues --   -0.50856  -0.49766  -0.47679  -0.46580  -0.43577
 Alpha  occ. eigenvalues --   -0.41444  -0.40126  -0.38665  -0.35869  -0.31832
 Alpha  occ. eigenvalues --   -0.26144
 Alpha virt. eigenvalues --   -0.01872  -0.00676   0.00160   0.00604   0.01954
 Alpha virt. eigenvalues --    0.02556   0.02870   0.03999   0.04526   0.05246
 Alpha virt. eigenvalues --    0.05927   0.07423   0.07635   0.08347   0.08987

 Mulliken charges:
               1
     1  C    0.275085
     2  C    0.161320
     3  C    1.357619
     4  C   -0.377934
     5  C    1.900092
     6  C    0.615677
     7  C    0.424025
     8  O   -0.568260
     9  N    0.258174
    10  O   -0.653386
    11  H   -0.775045
    12  H   -0.723369
    13  H   -1.011986
    14  H   -1.008925
    15  H    0.272560
    16  H   -0.023465
    17  H   -0.122181
 Sum of Mulliken charges =  -0.00000

 Dipole moment (field-independent basis, Debye):
    X=             -1.0282    Y=              0.4873    Z=             -0.0001  Tot=              1.1378
 Quadrupole moment (field-independent basis, Debye-Ang):
   XX=            -51.7935   YY=            -50.3409   ZZ=            -62.4031
   XY=             -5.2535   XZ=             -0.0001   YZ=             -0.0001

  Exact polarizability: 128.174   4.283 117.028  -0.036  -0.014  57.388
 Approx polarizability: 155.099   8.344 156.226  -0.000   0.001  77.698

                      1                      2                      3
                      A                      A                      A
 Frequencies --     61.8393               101.9068               191.7889
 Red. masses --      5.7437                 3.6606                 1.4411
 Frc consts  --      0.0129                 0.0224                 0.0312
 IR Inten    --     32.8981                31.0991                96.2324

                      4                      5                      6
                      A                      A                      A
 Frequencies --    243.4596               258.3850               372.6631
 Red. masses --      3.8250                 5.9160                 5.1913
 Frc consts  --      0.1336                 0.2327                 0.4248
 IR Inten    --      9.3101                 1.0342                 6.5646

                      7                      8                      9
                      A                      A                      A
 Frequencies --    413.2285               437.4146               514.0616
 Red. masses --      5.5753                 3.1017                 4.2715
 Frc consts  --      0.5609                 0.3497                 0.6651
 IR Inten    --      0.7593                 4.8460                 4.5379

                     10                     11                     12
                      A                      A                      A
 Frequencies --    546.3580               567.2326               602.2950
 Red. masses --      2.8252                 6.9115                 1.0350
 Frc consts  --      0.4969                 1.3102                 0.2212
 IR Inten    --     12.6331                 1.2629                25.4996

                     13                     14                     15
                      A                      A                      A
 Frequencies --    616.6995               656.7065               729.1653
 Red. masses --      1.1669                 5.4567                 2.2435
 Frc consts  --      0.2615                 1.3865                 0.7028
 IR Inten    --     62.8593                48.6224                68.8354

                     16                     17                     18
                      A                      A                      A
 Frequencies --    766.2272               766.9491               830.5208
 Red. masses --      1.6194                 4.0830                 3.1279
 Frc consts  --      0.5602                 1.4150                 1.2712
 IR Inten    --     29.5750                17.9660                 4.0867

                     19                     20                     21
                      A                      A                      A
 Frequencies --    864.9790               884.7993               993.3326
 Red. masses --      5.2670                 1.9698                 1.3850
 Frc consts  --      2.3218                 0.9086                 0.8052
 IR Inten    --      7.7804                 7.8941                 0.8528

                     22                     23                     24
                      A                      A                      A
 Frequencies --   1013.3288              1038.0586              1082.4323
 Red. masses --      1.3850                 1.8278                 1.8081
 Frc consts  --      0.8379                 1.1605                 1.2481
 IR Inten    --      0.1284                 4.5383                10.8213

                     25                     26                     27
                      A                      A                      A
 Frequencies --   1106.4368              1168.4269              1176.0806
 Red. masses --      3.7272                 1.2000                 1.2483
 Frc consts  --      2.6883                 0.9653                 1.0173
 IR Inten    --     76.5469                65.7799                14.2667

                     28                     29                     30
                      A                      A                      A
 Frequencies --   1225.3480              1308.9211              1339.1933
 Red. masses --      1.7564                 1.5296                 2.3522
 Frc consts  --      1.5538                 1.5440                 2.4855
 IR Inten    --    351.0909                 2.1953                32.7293

                     31                     32                     33
                      A                      A                      A
 Frequencies --   1385.1842              1425.6346              1497.6053
 Red. masses --      3.1079                 4.6798                 3.0843
 Frc consts  --      3.5135                 5.6039                 4.0757
 IR Inten    --     89.7376                67.0637                 9.1919

                     34                     35                     36
                      A                      A                      A
 Frequencies --   1524.3516              1610.9968              1650.2992
 Red. masses --      2.4549                 1.6212                 4.7916
 Frc consts  --      3.3609                 2.4790                 7.6888
 IR Inten    --     45.9323               188.8037               129.3305

                     37                     38                     39
                      A                      A                      A
 Frequencies --   1699.0711              1807.1457              3185.7543
 Red. masses --      5.9636                 8.2552                 1.0872
 Frc consts  --     10.1433                15.8842                 6.5010
 IR Inten    --     93.9448               453.8187                 3.9056

                     40                     41                     42
                      A                      A                      A
 Frequencies --   3201.1405              3211.3922              3253.3082
 Red. masses --      1.0936                 1.0971                 1.0940
 Frc consts  --      6.6024                 6.6662                 6.8219
 IR Inten    --     11.6539                 5.7354                 1.1617

                     43                     44                     45
                      A                      A                      A
 Frequencies --   3596.9976              3761.2094              3830.0280
 Red. masses --      1.0488                 1.1028                 1.0648
 Frc consts  --      7.9950                 9.1920                 9.2027
 IR Inten    --    118.4135                86.7298               124.8766

 - Thermochemistry -
 -------------------
 Temperature   298.150 Kelvin.  Pressure   1.00000 Atm.
 Atom     1 has atomic number  6 and mass  12.00000

 Molecular mass:   137.04768 amu.
 Principal axes and moments of inertia in atomic units:
                           1         2         3
     Eigenvalues --   783.582991481.973892265.55688
           X            0.99999  -0.00455   0.00001
           Y            0.00455   0.99999  -0.00000
           Z           -0.00001   0.00000   1.00000
 This molecule is an asymmetric top.
 Rotational symmetry number  1.
 Warning -- assumption of classical behavior for rotation
           may cause significant error
 Rotational temperatures (Kelvin)      0.11054     0.05844     0.03823
 Rotational constants (GHZ):           2.30319     1.21780     0.79660
 Zero-point vibrational energy     350017.5 (Joules/Mol)
                                   83.65619 (Kcal/Mol)
 Warning -- explicit consideration of  13 degrees of freedom as
           vibrations may cause significant error
 Vibrational temperatures:     88.97   146.62   275.94   350.28   371.76
          (Kelvin)            536.18   594.54   629.34   739.62   786.09
                              816.12   866.57   887.29   944.85  1049.10
                             1102.43  1103.47  1194.93  1244.51  1273.03
                             1429.18  1457.95  1493.53  1557.38  1591.91
                             1681.10  1692.12  1763.00  1883.24  1926.80
                             1992.97  2051.17  2154.72  2193.20  2317.86
                             2374.41  2444.58  2600.08  4583.58  4605.72
                             4620.47  4680.78  5175.27  5411.53  5510.55

 Zero-point correction=                           0.133315 (Hartree/Particle)
 Thermal correction to Energy=                    0.141896
 Thermal correction to Enthalpy=                  0.142840
 Thermal correction to Gibbs Free Energy=         0.099550
 Sum of electronic and zero-point Energies=           -475.948439
 Sum of electronic and thermal Energies=              -475.939857
 Sum of electronic and thermal Enthalpies=            -475.938913
 Sum of electronic and thermal Free Energies=         -475.982203

                     E (Thermal)             CV                S
                      KCal/Mol        Cal/Mol-Kelvin    Cal/Mol-Kelvin
 Total                   89.041             32.955             91.112
 Electronic               0.000              0.000              0.000
 Translational            0.889              2.981             40.657
 Rotational               0.889              2.981             29.355
 Vibrational             87.264             26.994             21.099
 Vibration     1          0.597              1.973              4.398
 Vibration     2          0.604              1.948              3.418
 Vibration     3          0.634              1.851              2.210
 Vibration     4          0.659              1.774              1.777
 Vibration     5          0.667              1.749              1.673
 Vibration     6          0.744              1.528              1.069
 Vibration     7          0.777              1.442              0.915
 Vibration     8          0.798              1.389              0.835
 Vibration     9          0.869              1.219              0.624
 Vibration    10          0.902              1.148              0.552
 Vibration    11          0.923              1.102              0.510
 Vibration    12          0.961              1.027              0.446
 Vibration    13          0.976              0.997              0.422

 Optimization completed.
    -- Stationary point found.
 Normal termination of Gaussian 09 at Sun Dec 15 21:39:35 2024.
