 Gaussian 09, Revision E.01,
 Gaussian 09:  ES64L-G09RevE.01 30-Nov-2015

 ----------------------------
 # opt freq m062x/aug-cc-pvdz
 ----------------------------

 ----------
 [No Title]
 ----------
 Symbolic Z-matrix:
 Charge =  1 Multiplicity = 1

 SCF Done:  E(RM062X) =  -476.430393907     A.U. after   15 cycles
 SCF Done:  E(RM062X) =  -476.430444263     A.U. after   12 cycles
 SCF Done:  E(RM062X) =  -476.430432652     A.U. after   12 cycles
 SCF Done:  E(RM062X) =  -476.430459561     A.U. after   11 cycles
 SCF Done:  E(RM062X) =  -476.430460894     A.U. after   10 cycles
 SCF Done:  E(RM062X) =  -476.430460465     A.U. after   10 cycles
 SCF Done:  E(RM062X) =  -476.430461190     A.U. after   10 cycles
 Optimization completed.
    -- Stationary point found.
 Normal termination of Gaussian 09 at Sun Dec 15 22:11:39 2024.

 ----------------------------------------------------------------------
 #N Geom=AllCheck Guess=TCheck SCRF=Check GenChk RM062X/Aug-CC-pVDZ Fre
 q
 ----------------------------------------------------------------------

 Structure from the checkpoint file:  "pvdzAnthranilicyang.chk"
 ----------
 [No Title]
 ----------
 Charge =  1 Multiplicity = 1

                         Standard orientation:
 ---------------------------------------------------------------------
 Center     Atomic      Atomic             Coordinates (Angstroms)
 Number     Number       Type             X           Y           Z
 ---------------------------------------------------------------------
      1          6           0        1.930619   -1.473896   -0.000001
      2          6           0        2.614350   -0.259487    0.000014
      3          6           0        1.910177    0.946473    0.000019
      4          6           0        0.527292    0.907745    0.000005
      5          6           0       -0.184623   -0.299298    0.000011
      6          6           0        0.537929   -1.495974   -0.000002
      7          6           0       -1.673284   -0.296675    0.000055
      8          8           0       -2.214157   -1.497358   -0.000112
      9          7           0       -0.234444    2.172267   -0.000033
     10          8           0       -2.342106    0.731513    0.000098
     11          1           0        2.485807   -2.409634   -0.000004
     12          1           0        3.702666   -0.243477    0.000015
     13          1           0        2.441231    1.898288    0.000017
     14          1           0       -0.001983   -2.440202    0.000001
     15          1           0       -3.182559   -1.412305   -0.000135
     16          1           0       -0.030738    2.737011   -0.829621
     17          1           0       -1.267094    1.880900   -0.000150
     18          1           0       -0.030884    2.736978    0.829613
 ---------------------------------------------------------------------

 SCF Done:  E(RM062X) =  -476.430461190     A.U. after    2 cycles

 The electronic state is 1-A.
 Alpha  occ. eigenvalues --  -19.85909 -19.81940 -15.04631 -10.87181 -10.79133
 Alpha  occ. eigenvalues --  -10.74892 -10.73447 -10.72836 -10.72690 -10.71827
 Alpha  occ. eigenvalues --   -1.41893  -1.32656  -1.28202  -1.13964  -1.04380
 Alpha  occ. eigenvalues --   -1.01841  -0.92640  -0.89040  -0.85933  -0.82787
 Alpha  occ. eigenvalues --   -0.81427  -0.78550  -0.75669  -0.75027  -0.71347
 Alpha  occ. eigenvalues --   -0.69737  -0.68138  -0.67350  -0.64131  -0.61378
 Alpha  occ. eigenvalues --   -0.60114  -0.58339  -0.57036  -0.53714  -0.48621
 Alpha  occ. eigenvalues --   -0.48491
 Alpha virt. eigenvalues --   -0.19206  -0.15864  -0.15068  -0.11021  -0.10590
 Alpha virt. eigenvalues --   -0.10427  -0.09006  -0.08265  -0.07969  -0.07486
 Alpha virt. eigenvalues --   -0.06427  -0.05759  -0.04856  -0.04317  -0.03910

 Mulliken charges:
               1
     1  C    0.297519
     2  C    0.539575
     3  C    0.944027
     4  C   -0.128149
     5  C    1.725187
     6  C    0.604652
     7  C    0.675794
     8  O   -0.548466
     9  N   -0.171371
    10  O   -0.668992
    11  H   -0.691759
    12  H   -0.652912
    13  H   -0.833185
    14  H   -0.939442
    15  H    0.333416
    16  H    0.159205
    17  H    0.195667
    18  H    0.159235
 Sum of Mulliken charges =   1.00000

 Dipole moment (field-independent basis, Debye):
    X=              1.0634    Y=              4.1319    Z=             -0.0002  Tot=              4.2665
 Quadrupole moment (field-independent basis, Debye-Ang):
   XX=            -35.6660   YY=            -28.7136   ZZ=            -56.6830
   XY=              3.5401   XZ=              0.0007   YZ=             -0.0005

  Exact polarizability: 117.160  -1.202 103.341   0.000   0.001  52.314
 Approx polarizability: 144.796  -1.841 138.844  -0.000   0.001  72.536

                      1                      2                      3
                      A                      A                      A
 Frequencies --     93.3275               134.5973               238.9072
 Red. masses --      6.9455                 3.7658                 3.3241
 Frc consts  --      0.0356                 0.0402                 0.1118
 IR Inten    --      5.2321                 2.4396                18.1153

                      4                      5                      6
                      A                      A                      A
 Frequencies --    271.0979               328.2451               361.3869
 Red. masses --      5.1559                 1.1174                 3.7107
 Frc consts  --      0.2233                 0.0709                 0.2855
 IR Inten    --     15.9472                 0.0117                71.4548

                      7                      8                      9
                      A                      A                      A
 Frequencies --    423.4979               429.6834               493.4663
 Red. masses --      2.9196                 7.8214                 3.1797
 Frc consts  --      0.3085                 0.8508                 0.4562
 IR Inten    --      9.9643                 3.3314                 4.0759

                     10                     11                     12
                      A                      A                      A
 Frequencies --    501.0518               563.3813               643.0097
 Red. masses --      4.7616                 6.3154                 1.2858
 Frc consts  --      0.7043                 1.1810                 0.3132
 IR Inten    --      4.7170                 3.1275                60.6917

                     13                     14                     15
                      A                      A                      A
 Frequencies --    665.5886               713.6309               762.1667
 Red. masses --      5.4850                 2.7824                 1.3483
 Frc consts  --      1.4316                 0.8349                 0.4615
 IR Inten    --     80.7959                44.6911                89.6247

                     16                     17                     18
                      A                      A                      A
 Frequencies --    768.6372               825.9644               833.8110
 Red. masses --      3.9715                 2.9621                 5.1268
 Frc consts  --      1.3824                 1.1906                 2.1001
 IR Inten    --     50.3550                 1.1424                15.2388

                     19                     20                     21
                      A                      A                      A
 Frequencies --    896.3246               995.1065              1037.7035
 Red. masses --      1.5148                 1.4020                 1.3878
 Frc consts  --      0.7170                 0.8179                 0.8805
 IR Inten    --      0.0051                 0.1851                 0.0016

                     22                     23                     24
                      A                      A                      A
 Frequencies --   1064.7393              1080.1177              1122.5585
 Red. masses --      2.0262                 1.8778                 2.0938
 Frc consts  --      1.3534                 1.2907                 1.5545
 IR Inten    --     21.2884                16.9504                47.6502

                     25                     26                     27
                      A                      A                      A
 Frequencies --   1123.5487              1178.4746              1184.0430
 Red. masses --      1.3441                 1.4795                 1.2211
 Frc consts  --      0.9997                 1.2106                 1.0087
 IR Inten    --      7.2192                 0.2883                 0.2415

                     28                     29                     30
                      A                      A                      A
 Frequencies --   1227.1122              1237.6100              1307.5137
 Red. masses --      2.9385                 1.5894                 1.4104
 Frc consts  --      2.6071                 1.4343                 1.4206
 IR Inten    --     46.7054               198.8045                 4.5471

                     31                     32                     33
                      A                      A                      A
 Frequencies --   1388.3434              1426.5585              1481.5338
 Red. masses --      6.4338                 1.5570                 2.3414
 Frc consts  --      7.3066                 1.8669                 3.0279
 IR Inten    --     30.6520               319.2316               189.7417

                     34                     35                     36
                      A                      A                      A
 Frequencies --   1492.7903              1543.9713              1601.0794
 Red. masses --      2.5942                 3.3928                 1.1376
 Frc consts  --      3.4061                 4.7652                 1.7182
 IR Inten    --     13.2664                73.5326                16.7388

                     37                     38                     39
                      A                      A                      A
 Frequencies --   1639.1406              1671.9738              1706.7140
 Red. masses --      1.0425                 6.3150                 5.7129
 Frc consts  --      1.6503                10.4011                 9.8045
 IR Inten    --     33.1856                 5.6805                56.3177

                     40                     41                     42
                      A                      A                      A
 Frequencies --   1783.8387              2645.6218              3192.4297
 Red. masses --      6.0901                 1.0965                 1.0934
 Frc consts  --     11.4179                 4.5220                 6.5658
 IR Inten    --    298.3485               700.1454                 0.9792

                     43                     44                     45
                      A                      A                      A
 Frequencies --   3216.5866              3226.2973              3235.8049
 Red. masses --      1.0922                 1.0955                 1.0985
 Frc consts  --      6.6579                 6.7183                 6.7767
 IR Inten    --      0.3897                 3.4927                 5.2162

                     46                     47                     48
                      A                      A                      A
 Frequencies --   3451.0956              3518.4758              3766.8275
 Red. masses --      1.0531                 1.0941                 1.0653
 Frc consts  --      7.3896                 7.9803                 8.9055
 IR Inten    --    115.5695               108.7059               240.6949

 - Thermochemistry -
 -------------------
 Temperature   298.150 Kelvin.  Pressure   1.00000 Atm.
 Atom     1 has atomic number  6 and mass  12.00000

 Molecular mass:   138.05550 amu.
 Principal axes and moments of inertia in atomic units:
                           1         2         3
     Eigenvalues --   801.888441490.626872282.60704
           X            1.00000  -0.00113  -0.00000
           Y            0.00113   1.00000  -0.00001
           Z            0.00000   0.00001   1.00000
 This molecule is an asymmetric top.
 Rotational symmetry number  1.
 Warning -- assumption of classical behavior for rotation
           may cause significant error
 Rotational temperatures (Kelvin)      0.10801     0.05811     0.03795
 Rotational constants (GHZ):           2.25061     1.21073     0.79065
 Zero-point vibrational energy     385768.1 (Joules/Mol)
                                   92.20078 (Kcal/Mol)
 Warning -- explicit consideration of  11 degrees of freedom as
           vibrations may cause significant error
 Vibrational temperatures:    134.28   193.66   343.73   390.05   472.27
          (Kelvin)            519.95   609.32   618.22   709.99   720.90
                              810.58   925.15   957.63  1026.75  1096.59
                             1105.90  1188.38  1199.67  1289.61  1431.73
                             1493.02  1531.92  1554.05  1615.11  1616.53
                             1695.56  1703.57  1765.54  1780.64  1881.22
                             1997.51  2052.50  2131.59  2147.79  2221.43
                             2303.59  2358.35  2405.59  2455.58  2566.54
                             3806.45  4593.19  4627.94  4641.92  4655.60
                             4965.35  5062.30  5419.62

 Zero-point correction=                           0.146931 (Hartree/Particle)
 Thermal correction to Energy=                    0.155112
 Thermal correction to Enthalpy=                  0.156056
 Thermal correction to Gibbs Free Energy=         0.113944
 Sum of electronic and zero-point Energies=           -476.283530
 Sum of electronic and thermal Energies=              -476.275349
 Sum of electronic and thermal Enthalpies=            -476.274405
 Sum of electronic and thermal Free Energies=         -476.316517

                     E (Thermal)             CV                S
                      KCal/Mol        Cal/Mol-Kelvin    Cal/Mol-Kelvin
 Total                   97.334             32.161             88.632
 Electronic               0.000              0.000              0.000
 Translational            0.889              2.981             40.679
 Rotational               0.889              2.981             29.391
 Vibrational             95.557             26.200             18.562
 Vibration     1          0.602              1.954              3.589
 Vibration     2          0.613              1.919              2.879
 Vibration     3          0.657              1.781              1.811
 Vibration     4          0.675              1.726              1.589
 Vibration     5          0.711              1.619              1.269
 Vibration     6          0.736              1.552              1.116
 Vibration     7          0.786              1.419              0.880
 Vibration     8          0.791              1.406              0.860
 Vibration     9          0.849              1.265              0.675
 Vibration    10          0.856              1.248              0.656
 Vibration    11          0.919              1.111              0.517

 Optimization completed.
    -- Stationary point found.
 Normal termination of Gaussian 09 at Sun Dec 15 22:15:39 2024.
