 Gaussian 09, Revision E.01,
 Gaussian 09:  ES64L-G09RevE.01 30-Nov-2015

 -----------------------------
 # opt freq b3lyp/6-311+g(d,p)
 -----------------------------

 ----------
 [No Title]
 ----------
 Symbolic Z-matrix:
 Charge =  0 Multiplicity = 1

 SCF Done:  E(RB3LYP) =  -476.330978154     A.U. after   15 cycles
 SCF Done:  E(RB3LYP) =  -476.331129720     A.U. after   11 cycles
 SCF Done:  E(RB3LYP) =  -476.331113719     A.U. after   11 cycles
 SCF Done:  E(RB3LYP) =  -476.331137989     A.U. after   10 cycles
 SCF Done:  E(RB3LYP) =  -476.331138947     A.U. after    9 cycles
 SCF Done:  E(RB3LYP) =  -476.331139048     A.U. after    8 cycles
 Optimization completed.
    -- Stationary point found.
 Normal termination of Gaussian 09 at Sat Jun 22 17:07:19 2024.

 ----------------------------------------------------------------------
 #N Geom=AllCheck Guess=TCheck SCRF=Check GenChk RB3LYP/6-311+G(d,p) Fr
 eq
 ----------------------------------------------------------------------

 Structure from the checkpoint file:  "m062x6311Anthranilic.chk"
 ----------
 [No Title]
 ----------
 Charge =  0 Multiplicity = 1

                         Standard orientation:
 ---------------------------------------------------------------------
 Center     Atomic      Atomic             Coordinates (Angstroms)
 Number     Number       Type             X           Y           Z
 ---------------------------------------------------------------------
      1          6           0       -1.852012   -1.522949    0.000017
      2          6           0       -2.582815   -0.325531    0.000009
      3          6           0       -1.941669    0.897210    0.000005
      4          6           0       -0.530565    0.985497    0.000009
      5          6           0        0.213714   -0.230164    0.000016
      6          6           0       -0.471755   -1.461044    0.000019
      7          6           0        1.679165   -0.197949    0.000012
      8          8           0        2.257861   -1.427465   -0.000023
      9          7           0        0.069392    2.207298    0.000016
     10          8           0        2.374712    0.807070   -0.000049
     11          1           0       -2.360187   -2.479029    0.000020
     12          1           0       -3.667207   -0.353980    0.000005
     13          1           0       -2.519931    1.815528   -0.000000
     14          1           0        0.113752   -2.370805    0.000024
     15          1           0        3.213935   -1.276059   -0.000063
     16          1           0        1.077866    2.263451   -0.000008
     17          1           0       -0.488937    3.042537   -0.000028
 ---------------------------------------------------------------------

 SCF Done:  E(RB3LYP) =  -476.331139048     A.U. after    1 cycles

 The electronic state is 1-A.
 Alpha  occ. eigenvalues --  -19.17345 -19.11920 -14.33041 -10.31313 -10.23984
 Alpha  occ. eigenvalues --  -10.19181 -10.18970 -10.18679 -10.18053 -10.17281
 Alpha  occ. eigenvalues --   -1.11660  -1.02492  -0.93919  -0.85441  -0.77849
 Alpha  occ. eigenvalues --   -0.74319  -0.66915  -0.62999  -0.60153  -0.54443
 Alpha  occ. eigenvalues --   -0.53194  -0.51567  -0.49668  -0.46494  -0.46090
 Alpha  occ. eigenvalues --   -0.44655  -0.43814  -0.41094  -0.39688  -0.38081
 Alpha  occ. eigenvalues --   -0.36261  -0.33538  -0.32553  -0.29209  -0.27030
 Alpha  occ. eigenvalues --   -0.21890
 Alpha virt. eigenvalues --   -0.05719  -0.00825  -0.00336   0.00684   0.01445
 Alpha virt. eigenvalues --    0.03056   0.03903   0.04391   0.05131   0.05168
 Alpha virt. eigenvalues --    0.06685   0.07255   0.07880   0.08987   0.09538

 Mulliken charges:
               1
     1  C   -0.032767
     2  C   -0.408903
     3  C    0.263672
     4  C   -1.028335
     5  C    1.424015
     6  C   -0.777950
     7  C    0.236673
     8  O   -0.223796
     9  N   -0.413249
    10  O   -0.367907
    11  H    0.122439
    12  H    0.128041
    13  H    0.103712
    14  H    0.144041
    15  H    0.278795
    16  H    0.299987
    17  H    0.251533
 Sum of Mulliken charges =  -0.00000

 Dipole moment (field-independent basis, Debye):
    X=             -1.2144    Y=              0.5661    Z=             -0.0000  Tot=              1.3399
 Quadrupole moment (field-independent basis, Debye-Ang):
   XX=            -52.5940   YY=            -50.8553   ZZ=            -62.4325
   XY=             -5.2241   XZ=              0.0000   YZ=             -0.0002

  Exact polarizability: 128.330   4.207 115.509  -0.001   0.001  54.204
 Approx polarizability: 196.002  11.978 195.405  -0.001  -0.001  80.815

 ******    1 imaginary frequencies (negative Signs) ******

                      1                      2                      3
                      A                      A                      A
 Frequencies --   -139.5330                88.1600               163.4969
 Red. masses --      1.8127                 6.0132                 2.3266
 Frc consts  --      0.0208                 0.0275                 0.0366
 IR Inten    --    134.7716                 7.2649                34.1640

                      4                      5                      6
                      A                      A                      A
 Frequencies --    234.9976               254.9093               368.8506
 Red. masses --      4.0534                 5.7779                 5.1682
 Frc consts  --      0.1319                 0.2212                 0.4143
 IR Inten    --      7.9104                 1.0409                 7.7579

                      7                      8                      9
                      A                      A                      A
 Frequencies --    418.6198               425.4331               511.3046
 Red. masses --      5.8345                 2.9291                 4.2136
 Frc consts  --      0.6024                 0.3124                 0.6490
 IR Inten    --      0.9884                 8.6317                 4.9175

                     10                     11                     12
                      A                      A                      A
 Frequencies --    534.7441               558.3451               570.2183
 Red. masses --      2.7217                 1.2362                 6.8466
 Frc consts  --      0.4585                 0.2271                 1.3116
 IR Inten    --      5.9309                98.6272                 1.5637

                     13                     14                     15
                      A                      A                      A
 Frequencies --    613.0127               651.2676               711.6752
 Red. masses --      1.0333                 5.3409                 3.4156
 Frc consts  --      0.2288                 1.3347                 1.0193
 IR Inten    --     18.7515                48.8048                37.2623

                     16                     17                     18
                      A                      A                      A
 Frequencies --    748.7489               760.9963               805.8440
 Red. masses --      4.2603                 1.4656                 3.4897
 Frc consts  --      1.4072                 0.5001                 1.3352
 IR Inten    --     12.1961                62.3503                 2.7170

                     19                     20                     21
                      A                      A                      A
 Frequencies --    858.0401               865.9976               973.6618
 Red. masses --      1.6864                 5.3310                 1.3577
 Frc consts  --      0.7315                 2.3555                 0.7584
 IR Inten    --      3.0888                 6.8657                 0.4565

                     22                     23                     24
                      A                      A                      A
 Frequencies --    993.3804              1036.4211              1070.7434
 Red. masses --      1.3033                 2.1139                 2.2163
 Frc consts  --      0.7577                 1.3378                 1.4971
 IR Inten    --      0.0077                 4.8925                41.9490

                     25                     26                     27
                      A                      A                      A
 Frequencies --   1086.8916              1174.1929              1183.9324
 Red. masses --      3.2422                 1.3435                 1.2870
 Frc consts  --      2.2567                 1.0913                 1.0629
 IR Inten    --    131.2266                96.7531               145.4201

                     28                     29                     30
                      A                      A                      A
 Frequencies --   1203.6342              1305.8775              1337.7082
 Red. masses --      1.5123                 2.1530                 2.0325
 Frc consts  --      1.2908                 2.1632                 2.1430
 IR Inten    --    164.7444                 1.5794                48.5626

                     31                     32                     33
                      A                      A                      A
 Frequencies --   1364.9117              1387.6107              1484.3328
 Red. masses --      2.6863                 4.6170                 2.5438
 Frc consts  --      2.9485                 5.2377                 3.3022
 IR Inten    --     61.4227                54.0667                17.1898

                     34                     35                     36
                      A                      A                      A
 Frequencies --   1514.7904              1589.4280              1622.0108
 Red. masses --      2.2781                 3.2537                 1.8976
 Frc consts  --      3.0798                 4.8429                 2.9414
 IR Inten    --     36.7207                85.0907               182.6056

                     37                     38                     39
                      A                      A                      A
 Frequencies --   1655.9903              1738.1174              3156.5980
 Red. masses --      3.8972                 6.7360                 1.0869
 Frc consts  --      6.2968                11.9897                 6.3809
 IR Inten    --    158.8967               420.5507                 8.1357

                     40                     41                     42
                      A                      A                      A
 Frequencies --   3174.2847              3191.4902              3211.2678
 Red. masses --      1.0918                 1.0920                 1.0941
 Frc consts  --      6.4816                 6.5531                 6.6478
 IR Inten    --     15.3542                 8.5948                 4.0392

                     43                     44                     45
                      A                      A                      A
 Frequencies --   3554.0449              3716.4339              3776.3833
 Red. masses --      1.0501                 1.1006                 1.0647
 Frc consts  --      7.8153                 8.9566                 8.9458
 IR Inten    --    107.1764                74.5921               105.1043

 - Thermochemistry -
 -------------------
 Temperature   298.150 Kelvin.  Pressure   1.00000 Atm.
 Atom     1 has atomic number  6 and mass  12.00000

 Molecular mass:   137.04768 amu.
 Principal axes and moments of inertia in atomic units:
                           1         2         3
     Eigenvalues --   784.954701485.367002270.32170
           X            0.99999  -0.00442   0.00001
           Y            0.00442   0.99999   0.00000
           Z           -0.00001  -0.00000   1.00000
 This molecule is an asymmetric top.
 Rotational symmetry number  1.
 Warning -- assumption of classical behavior for rotation
           may cause significant error
 Rotational temperatures (Kelvin)      0.11034     0.05831     0.03815
 Rotational constants (GHZ):           2.29917     1.21501     0.79493
    1 imaginary frequencies ignored.
 Zero-point vibrational energy     344816.4 (Joules/Mol)
                                   82.41310 (Kcal/Mol)
 Warning -- explicit consideration of  12 degrees of freedom as
           vibrations may cause significant error
 Vibrational temperatures:    126.84   235.24   338.11   366.76   530.69
          (Kelvin)            602.30   612.10   735.65   769.38   803.33
                              820.42   881.99   937.03  1023.94  1077.28
                             1094.90  1159.43  1234.53  1245.98  1400.88
                             1429.25  1491.18  1540.56  1563.79  1689.40
                             1703.41  1731.76  1878.86  1924.66  1963.80
                             1996.46  2135.62  2179.44  2286.83  2333.71
                             2382.60  2500.76  4541.63  4567.08  4591.84
                             4620.29  5113.47  5347.11  5433.37

 Zero-point correction=                           0.131334 (Hartree/Particle)
 Thermal correction to Energy=                    0.139283
 Thermal correction to Enthalpy=                  0.140227
 Thermal correction to Gibbs Free Energy=         0.098579
 Sum of electronic and zero-point Energies=           -476.199805
 Sum of electronic and thermal Energies=              -476.191856
 Sum of electronic and thermal Enthalpies=            -476.190912
 Sum of electronic and thermal Free Energies=         -476.232560

                     E (Thermal)             CV                S
                      KCal/Mol        Cal/Mol-Kelvin    Cal/Mol-Kelvin
 Total                   87.401             31.488             87.656
 Electronic               0.000              0.000              0.000
 Translational            0.889              2.981             40.657
 Rotational               0.889              2.981             29.361
 Vibrational             85.624             25.527             17.638
 Vibration     1          0.601              1.958              3.700
 Vibration     2          0.623              1.887              2.509
 Vibration     3          0.655              1.787              1.840
 Vibration     4          0.665              1.755              1.696
 Vibration     5          0.741              1.536              1.085
 Vibration     6          0.781              1.430              0.897
 Vibration     7          0.787              1.415              0.874
 Vibration     8          0.866              1.225              0.630
 Vibration     9          0.890              1.173              0.577
 Vibration    10          0.914              1.121              0.527
 Vibration    11          0.926              1.096              0.504
 Vibration    12          0.972              1.004              0.428

 Optimization completed.
    -- Stationary point found.
 Normal termination of Gaussian 09 at Sat Jun 22 17:09:12 2024.
