 Gaussian 09, Revision E.01,
 Gaussian 09:  ES64L-G09RevE.01 30-Nov-2015

 -----------------------------
 # opt freq b3lyp/6-311+g(d,p)
 -----------------------------

 ----------
 [No Title]
 ----------
 Symbolic Z-matrix:
 Charge =  1 Multiplicity = 1

 SCF Done:  E(RB3LYP) =  -476.682019567     A.U. after   14 cycles
 SCF Done:  E(RB3LYP) =  -476.682183631     A.U. after   11 cycles
 SCF Done:  E(RB3LYP) =  -476.682145440     A.U. after   12 cycles
 SCF Done:  E(RB3LYP) =  -476.682196128     A.U. after    6 cycles
 SCF Done:  E(RB3LYP) =  -476.682205208     A.U. after   10 cycles
 SCF Done:  E(RB3LYP) =  -476.682206539     A.U. after    9 cycles
 SCF Done:  E(RB3LYP) =  -476.682206577     A.U. after    9 cycles
 SCF Done:  E(RB3LYP) =  -476.682206773     A.U. after    8 cycles
 Optimization completed.
    -- Stationary point found.
 Normal termination of Gaussian 09 at Sat Jun 22 17:08:39 2024.

 ----------------------------------------------------------------------
 #N Geom=AllCheck Guess=TCheck SCRF=Check GenChk RB3LYP/6-311+G(d,p) Fr
 eq
 ----------------------------------------------------------------------

 Structure from the checkpoint file:  "m062x6311Anthranilicyang.chk"
 ----------
 [No Title]
 ----------
 Charge =  1 Multiplicity = 1

                         Standard orientation:
 ---------------------------------------------------------------------
 Center     Atomic      Atomic             Coordinates (Angstroms)
 Number     Number       Type             X           Y           Z
 ---------------------------------------------------------------------
      1          6           0        1.929971   -1.477558   -0.000010
      2          6           0        2.616563   -0.265971    0.000045
      3          6           0        1.913217    0.940028    0.000049
      4          6           0        0.530741    0.907671   -0.000004
      5          6           0       -0.188521   -0.299354   -0.000044
      6          6           0        0.538704   -1.495805   -0.000051
      7          6           0       -1.675712   -0.296567   -0.000073
      8          8           0       -2.220092   -1.500537   -0.000017
      9          7           0       -0.226948    2.184860   -0.000048
     10          8           0       -2.346209    0.732420    0.000135
     11          1           0        2.478618   -2.411119   -0.000015
     12          1           0        3.699499   -0.250964    0.000079
     13          1           0        2.446617    1.884529    0.000081
     14          1           0        0.002661   -2.435472   -0.000080
     15          1           0       -3.188826   -1.419728    0.000071
     16          1           0       -0.024996    2.750508   -0.828925
     17          1           0       -1.258995    1.908099   -0.000277
     18          1           0       -0.025313    2.750387    0.828990
 ---------------------------------------------------------------------

 SCF Done:  E(RB3LYP) =  -476.682206773     A.U. after    1 cycles

 The electronic state is 1-A.
 Alpha  occ. eigenvalues --  -19.34190 -19.29723 -14.60582 -10.49241 -10.41782
 Alpha  occ. eigenvalues --  -10.37701 -10.36068 -10.35370 -10.35254 -10.34404
 Alpha  occ. eigenvalues --   -1.29340  -1.20834  -1.17706  -1.04110  -0.95134
 Alpha  occ. eigenvalues --   -0.92883  -0.84340  -0.81210  -0.78280  -0.76105
 Alpha  occ. eigenvalues --   -0.74266  -0.71617  -0.68694  -0.67018  -0.63341
 Alpha  occ. eigenvalues --   -0.63259  -0.62045  -0.61241  -0.57230  -0.54876
 Alpha  occ. eigenvalues --   -0.54438  -0.53144  -0.50269  -0.47097  -0.43925
 Alpha  occ. eigenvalues --   -0.43755
 Alpha virt. eigenvalues --   -0.23177  -0.19482  -0.17113  -0.12837  -0.12273
 Alpha virt. eigenvalues --   -0.11474  -0.10505  -0.09744  -0.08418  -0.07437
 Alpha virt. eigenvalues --   -0.06662  -0.06311  -0.05418  -0.04413  -0.04322

 Mulliken charges:
               1
     1  C   -0.013782
     2  C   -0.360580
     3  C    0.024081
     4  C   -0.911830
     5  C    1.554035
     6  C   -0.834832
     7  C    0.295404
     8  O   -0.159188
     9  N   -0.331843
    10  O   -0.318885
    11  H    0.175379
    12  H    0.178297
    13  H    0.157683
    14  H    0.183883
    15  H    0.314931
    16  H    0.332096
    17  H    0.383042
    18  H    0.332108
 Sum of Mulliken charges =   1.00000

 Dipole moment (field-independent basis, Debye):
    X=              1.2502    Y=              4.2691    Z=             -0.0004  Tot=              4.4484
 Quadrupole moment (field-independent basis, Debye-Ang):
   XX=            -36.6391   YY=            -29.0220   ZZ=            -56.6199
   XY=              3.6026   XZ=              0.0007   YZ=             -0.0007

  Exact polarizability: 117.668  -0.805 102.382   0.000   0.001  49.359
 Approx polarizability: 183.428  -2.481 170.806  -0.000   0.003  75.645

                      1                      2                      3
                      A                      A                      A
 Frequencies --     85.5110               129.6620               230.5757
 Red. masses --      6.0428                 3.6915                 3.1871
 Frc consts  --      0.0260                 0.0366                 0.0998
 IR Inten    --      6.4467                 1.6017                18.9947

                      4                      5                      6
                      A                      A                      A
 Frequencies --    273.1555               322.9771               371.0227
 Red. masses --      5.2411                 1.1858                 3.8518
 Frc consts  --      0.2304                 0.0729                 0.3124
 IR Inten    --      8.6326                 0.6217                61.6753

                      7                      8                      9
                      A                      A                      A
 Frequencies --    423.4897               427.7360               486.2258
 Red. masses --      3.0088                 8.0922                 3.1898
 Frc consts  --      0.3179                 0.8723                 0.4443
 IR Inten    --     10.2313                 2.9201                 4.4739

                     10                     11                     12
                      A                      A                      A
 Frequencies --    500.7441               563.3626               612.5276
 Red. masses --      4.5835                 6.2462                 1.2606
 Frc consts  --      0.6771                 1.1680                 0.2787
 IR Inten    --      4.2782                 2.6882                74.3719

                     13                     14                     15
                      A                      A                      A
 Frequencies --    662.7669               697.5473               748.2743
 Red. masses --      5.4809                 3.2744                 4.1048
 Frc consts  --      1.4185                 0.9387                 1.3541
 IR Inten    --     72.5862                33.7338                46.3180

                     16                     17                     18
                      A                      A                      A
 Frequencies --    762.7520               811.7817               828.2249
 Red. masses --      1.5958                 2.5935                 5.2977
 Frc consts  --      0.5470                 1.0070                 2.1411
 IR Inten    --     96.3383                 0.3635                13.7578

                     19                     20                     21
                      A                      A                      A
 Frequencies --    899.2284               996.0980              1034.1202
 Red. masses --      1.3588                 1.3682                 1.3489
 Frc consts  --      0.6474                 0.7998                 0.8499
 IR Inten    --      0.0056                 0.3832                 0.0005

                     22                     23                     24
                      A                      A                      A
 Frequencies --   1056.3858              1073.9667              1119.9118
 Red. masses --      2.2995                 2.2209                 2.3871
 Frc consts  --      1.5119                 1.5092                 1.7640
 IR Inten    --     10.4632                14.0886                91.2722

                     25                     26                     27
                      A                      A                      A
 Frequencies --   1120.5219              1176.6958              1192.0950
 Red. masses --      1.3164                 1.6651                 2.4966
 Frc consts  --      0.9738                 1.3584                 2.0904
 IR Inten    --      8.2118                 7.5754                21.7311

                     28                     29                     30
                      A                      A                      A
 Frequencies --   1201.4462              1211.3758              1320.4488
 Red. masses --      1.2068                 1.6704                 1.6670
 Frc consts  --      1.0263                 1.4442                 1.7124
 IR Inten    --     38.8399               177.1942                 1.6431

                     31                     32                     33
                      A                      A                      A
 Frequencies --   1357.1345              1417.7908              1481.5624
 Red. masses --      4.3857                 2.9238                 1.7186
 Frc consts  --      4.7592                 3.4628                 2.2226
 IR Inten    --     26.2251               222.9844               140.2450

                     34                     35                     36
                      A                      A                      A
 Frequencies --   1493.6848              1526.1616              1605.7636
 Red. masses --      1.7119                 2.3417                 2.2279
 Frc consts  --      2.2503                 3.2136                 3.3846
 IR Inten    --    146.6191                84.4437                15.3833

                     37                     38                     39
                      A                      A                      A
 Frequencies --   1627.6176              1664.9944              1666.7503
 Red. masses --      2.2307                 2.8065                 1.0442
 Frc consts  --      3.4818                 4.5839                 1.7092
 IR Inten    --     31.6752                38.9765                37.2283

                     40                     41                     42
                      A                      A                      A
 Frequencies --   1724.6593              2718.0679              3178.7207
 Red. masses --      4.6045                 1.0880                 1.0915
 Frc consts  --      8.0693                 4.7357                 6.4982
 IR Inten    --    265.1839               620.2215                 0.6111

                     43                     44                     45
                      A                      A                      A
 Frequencies --   3197.7192              3208.8570              3220.4585
 Red. masses --      1.0905                 1.0953                 1.0951
 Frc consts  --      6.5696                 6.6450                 6.6920
 IR Inten    --      0.1318                 0.8674                 3.6154

                     46                     47                     48
                      A                      A                      A
 Frequencies --   3427.0255              3480.8244              3731.1988
 Red. masses --      1.0514                 1.0941                 1.0651
 Frc consts  --      7.2753                 7.8106                 8.7365
 IR Inten    --     89.5739                94.7582               218.8129

 - Thermochemistry -
 -------------------
 Temperature   298.150 Kelvin.  Pressure   1.00000 Atm.
 Atom     1 has atomic number  6 and mass  12.00000

 Molecular mass:   138.05550 amu.
 Principal axes and moments of inertia in atomic units:
                           1         2         3
     Eigenvalues --   806.046811494.484972290.63924
           X            1.00000  -0.00114   0.00000
           Y            0.00114   1.00000  -0.00001
           Z           -0.00000   0.00001   1.00000
 This molecule is an asymmetric top.
 Rotational symmetry number  1.
 Warning -- assumption of classical behavior for rotation
           may cause significant error
 Rotational temperatures (Kelvin)      0.10746     0.05796     0.03781
 Rotational constants (GHZ):           2.23900     1.20760     0.78788
 Zero-point vibrational energy     383221.4 (Joules/Mol)
                                   91.59212 (Kcal/Mol)
 Warning -- explicit consideration of  12 degrees of freedom as
           vibrations may cause significant error
 Vibrational temperatures:    123.03   186.55   331.75   393.01   464.69
          (Kelvin)            533.82   609.31   615.42   699.57   720.46
                              810.55   881.29   953.57  1003.61  1076.60
                             1097.43  1167.97  1191.63  1293.79  1433.16
                             1487.87  1519.90  1545.20  1611.30  1612.18
                             1693.00  1715.16  1728.61  1742.90  1899.83
                             1952.61  2039.88  2131.64  2149.08  2195.80
                             2310.33  2341.78  2395.55  2398.08  2481.40
                             3910.69  4573.46  4600.80  4616.82  4633.52
                             4930.72  5008.12  5368.36

 Zero-point correction=                           0.145961 (Hartree/Particle)
 Thermal correction to Energy=                    0.154221
 Thermal correction to Enthalpy=                  0.155165
 Thermal correction to Gibbs Free Energy=         0.112846
 Sum of electronic and zero-point Energies=           -476.536245
 Sum of electronic and thermal Energies=              -476.527986
 Sum of electronic and thermal Enthalpies=            -476.527042
 Sum of electronic and thermal Free Energies=         -476.569361

                     E (Thermal)             CV                S
                      KCal/Mol        Cal/Mol-Kelvin    Cal/Mol-Kelvin
 Total                   96.775             32.430             89.068
 Electronic               0.000              0.000              0.000
 Translational            0.889              2.981             40.679
 Rotational               0.889              2.981             29.402
 Vibrational             94.998             26.468             18.987
 Vibration     1          0.601              1.959              3.760
 Vibration     2          0.612              1.924              2.951
 Vibration     3          0.652              1.794              1.874
 Vibration     4          0.676              1.723              1.576
 Vibration     5          0.708              1.629              1.295
 Vibration     6          0.743              1.532              1.076
 Vibration     7          0.786              1.419              0.880
 Vibration     8          0.789              1.410              0.866
 Vibration     9          0.842              1.281              0.693
 Vibration    10          0.856              1.248              0.656
 Vibration    11          0.919              1.111              0.517
 Vibration    12          0.972              1.005              0.429

 Optimization completed.
    -- Stationary point found.
 Normal termination of Gaussian 09 at Sat Jun 22 17:10:34 2024.
