 Gaussian 09, Revision E.01,
 Gaussian 09:  ES64L-G09RevE.01 30-Nov-2015

 ----------------------------
 # opt freq m062x/aug-cc-pvdz
 ----------------------------

 ----------
 [No Title]
 ----------
 Symbolic Z-matrix:
 Charge =  0 Multiplicity = 1

 SCF Done:  E(RM062X) =  -687.807107546     A.U. after   22 cycles
 SCF Done:  E(RM062X) =  -687.807210220     A.U. after   15 cycles
 SCF Done:  E(RM062X) =  -687.807225554     A.U. after   17 cycles
 SCF Done:  E(RM062X) =  -687.807224420     A.U. after   18 cycles
 SCF Done:  E(RM062X) =  -687.807228588     A.U. after   17 cycles
 Optimization completed.
    -- Stationary point found.
 Normal termination of Gaussian 09 at Sun Dec 15 00:49:31 2024.

 ----------------------------------------------------------------------
 #N Geom=AllCheck Guess=TCheck SCRF=Check GenChk RM062X/Aug-CC-pVDZ Fre
 q
 ----------------------------------------------------------------------

 Structure from the checkpoint file:  "pvdzFA.chk"
 ----------
 [No Title]
 ----------
 Charge =  0 Multiplicity = 1

                         Standard orientation:
 ---------------------------------------------------------------------
 Center     Atomic      Atomic             Coordinates (Angstroms)
 Number     Number       Type             X           Y           Z
 ---------------------------------------------------------------------
      1          6           0        1.461071   -2.009847   -0.000374
      2          6           0        2.492078   -1.077530   -0.000252
      3          6           0        2.191452    0.296983   -0.000076
      4          6           0        0.869309    0.717100   -0.000030
      5          6           0       -0.177985   -0.223109   -0.000140
      6          6           0        0.135838   -1.586408   -0.000316
      7          8           0        3.779232   -1.494760   -0.000304
      8          6           0       -1.557703    0.277457   -0.000060
      9          6           0       -2.682681   -0.453928    0.000122
     10          8           0        3.290567    1.107019    0.000033
     11          6           0        3.063160    2.505232    0.000367
     12          6           0       -4.072075    0.072066    0.000353
     13          8           0       -5.027171   -0.660356    0.001794
     14          8           0       -4.261603    1.414352   -0.000974
     15          1           0        1.718121   -3.067046   -0.000510
     16          1           0        0.631579    1.778880    0.000110
     17          1           0       -0.655375   -2.332782   -0.000417
     18          1           0        4.350935   -0.714930   -0.000174
     19          1           0       -1.620039    1.370665   -0.000024
     20          1           0       -2.657524   -1.541741    0.000363
     21          1           0        4.049850    2.973548    0.000504
     22          1           0        2.509157    2.808100   -0.899083
     23          1           0        2.509113    2.807665    0.899935
     24          1           0       -3.418796    1.879507   -0.002665
 ---------------------------------------------------------------------

 SCF Done:  E(RM062X) =  -687.807228588     A.U. after    6 cycles

 The electronic state is 1-A.
 Alpha  occ. eigenvalues --  -19.70719 -19.68964 -19.68849 -19.62814 -10.68570
 Alpha  occ. eigenvalues --  -10.63382 -10.63302 -10.62756 -10.59625 -10.58192
 Alpha  occ. eigenvalues --  -10.57953 -10.57508 -10.57194 -10.56915  -1.23333
 Alpha  occ. eigenvalues --   -1.23129  -1.19963  -1.14275  -0.98758  -0.92249
 Alpha  occ. eigenvalues --   -0.87642  -0.86033  -0.81592  -0.75886  -0.71674
 Alpha  occ. eigenvalues --   -0.70752  -0.68017  -0.65943  -0.62726  -0.60306
 Alpha  occ. eigenvalues --   -0.58875  -0.57969  -0.55381  -0.53737  -0.53097
 Alpha  occ. eigenvalues --   -0.52824  -0.51723  -0.51222  -0.50419  -0.47225
 Alpha  occ. eigenvalues --   -0.46936  -0.45205  -0.45073  -0.43796  -0.42931
 Alpha  occ. eigenvalues --   -0.42335  -0.39484  -0.36316  -0.35329  -0.31748
 Alpha  occ. eigenvalues --   -0.27484
 Alpha virt. eigenvalues --   -0.04612  -0.02087  -0.00949   0.00037   0.00181
 Alpha virt. eigenvalues --    0.00821   0.01179   0.01919   0.02335   0.03955
 Alpha virt. eigenvalues --    0.03967   0.04377   0.04877   0.05605   0.05951

 Mulliken charges:
               1
     1  C    0.844321
     2  C   -1.011058
     3  C   -0.077038
     4  C    1.720194
     5  C    2.231945
     6  C    1.042561
     7  O   -0.537772
     8  C    1.530512
     9  C    0.247093
    10  O   -0.694316
    11  C    1.097486
    12  C    0.416280
    13  O   -0.521803
    14  O   -0.470120
    15  H   -0.909116
    16  H   -1.486629
    17  H   -1.048634
    18  H    0.166920
    19  H   -0.948363
    20  H   -0.994203
    21  H   -0.551556
    22  H   -0.096274
    23  H   -0.096285
    24  H    0.145854
 Sum of Mulliken charges =  -0.00000

 Dipole moment (field-independent basis, Debye):
    X=              6.2954    Y=              3.6051    Z=             -0.0041  Tot=              7.2546
 Quadrupole moment (field-independent basis, Debye-Ang):
   XX=           -112.7059   YY=            -70.6128   ZZ=            -85.0110
   XY=              5.1634   XZ=              0.0224   YZ=             -0.0013

  Exact polarizability: 226.813   5.342 142.852  -0.014  -0.008  78.502
 Approx polarizability: 254.496   8.766 185.304  -0.023  -0.012 107.631

 ******    1 imaginary frequencies (negative Signs) ******

                      1                      2                      3
                      A                      A                      A
 Frequencies --    -35.8834                49.7923                76.9980
 Red. masses --      3.4314                 3.5305                 3.9134
 Frc consts  --      0.0026                 0.0052                 0.0137
 IR Inten    --     14.0399                 0.0457                 7.2318

                      4                      5                      6
                      A                      A                      A
 Frequencies --     85.5067                92.9067               173.7775
 Red. masses --      6.1594                 3.6657                 4.6651
 Frc consts  --      0.0265                 0.0186                 0.0830
 IR Inten    --      3.3398                 0.0825                 0.9194

                      7                      8                      9
                      A                      A                      A
 Frequencies --    214.5866               239.0189               239.0911
 Red. masses --      4.1090                 2.1488                 4.3609
 Frc consts  --      0.1115                 0.0723                 0.1469
 IR Inten    --      3.9214                 1.4348                 5.0195

                     10                     11                     12
                      A                      A                      A
 Frequencies --    303.7461               312.3779               370.6006
 Red. masses --      1.6638                 6.2349                 4.6106
 Frc consts  --      0.0904                 0.3585                 0.3731
 IR Inten    --      0.0062                 6.6948                 3.4323

                     13                     14                     15
                      A                      A                      A
 Frequencies --    376.7720               407.3566               450.9109
 Red. masses --      3.4637                 1.3189                 1.0918
 Frc consts  --      0.2897                 0.1289                 0.1308
 IR Inten    --      4.3675                67.7092                99.4238

                     16                     17                     18
                      A                      A                      A
 Frequencies --    472.1954               488.7253               527.9777
 Red. masses --      3.0049                 5.0734                 5.9282
 Frc consts  --      0.3948                 0.7140                 0.9736
 IR Inten    --      0.0123                 0.4152                 2.2862

                     19                     20                     21
                      A                      A                      A
 Frequencies --    574.8041               586.3696               609.2113
 Red. masses --      4.0896                 7.2118                 3.4311
 Frc consts  --      0.7961                 1.4610                 0.7503
 IR Inten    --      7.4917                27.4291                13.2886

                     22                     23                     24
                      A                      A                      A
 Frequencies --    660.9934               733.4265               769.9427
 Red. masses --      5.6517                 4.1986                 3.3390
 Frc consts  --      1.4549                 1.3307                 1.1662
 IR Inten    --      4.4292                 0.0565                 0.0463

                     25                     26                     27
                      A                      A                      A
 Frequencies --    781.7140               824.0191               855.6651
 Red. masses --      5.7307                 5.2732                 1.5899
 Frc consts  --      2.0633                 2.1096                 0.6858
 IR Inten    --      6.6637                17.3116                23.6176

                     28                     29                     30
                      A                      A                      A
 Frequencies --    886.0450               925.2337               933.3658
 Red. masses --      1.6357                 2.2357                 5.0723
 Frc consts  --      0.7566                 1.1276                 2.6035
 IR Inten    --     19.5924                 0.2826                30.7503

                     31                     32                     33
                      A                      A                      A
 Frequencies --    976.4633               992.0644              1009.0278
 Red. masses --      3.3099                 1.3912                 1.1332
 Frc consts  --      1.8594                 0.8067                 0.6798
 IR Inten    --      6.8521                 7.3056                39.4731

                     34                     35                     36
                      A                      A                      A
 Frequencies --   1088.7912              1146.2756              1173.7726
 Red. masses --      3.2878                 1.3948                 1.2771
 Frc consts  --      2.2964                 1.0798                 1.0366
 IR Inten    --     22.1887                35.7715                 0.7909

                     37                     38                     39
                      A                      A                      A
 Frequencies --   1199.2916              1209.9356              1219.7403
 Red. masses --      1.6687                 1.5450                 1.5846
 Frc consts  --      1.4141                 1.3326                 1.3890
 IR Inten    --     32.5363                24.9796                81.4594

                     40                     41                     42
                      A                      A                      A
 Frequencies --   1230.8627              1266.3000              1301.9958
 Red. masses --      1.3705                 1.9096                 2.2356
 Frc consts  --      1.2234                 1.8042                 2.2329
 IR Inten    --     83.4893                59.0311                69.1927

                     43                     44                     45
                      A                      A                      A
 Frequencies --   1311.5974              1329.9410              1361.7532
 Red. masses --      1.7177                 2.4620                 2.1823
 Frc consts  --      1.7410                 2.5657                 2.3843
 IR Inten    --      2.3187               591.3331                57.5714

                     46                     47                     48
                      A                      A                      A
 Frequencies --   1374.4288              1430.0697              1462.6021
 Red. masses --      2.4210                 2.5107                 1.3736
 Frc consts  --      2.6946                 3.0252                 1.7313
 IR Inten    --    281.1413                56.9677                 2.7779

                     49                     50                     51
                      A                      A                      A
 Frequencies --   1474.1668              1483.0280              1497.3524
 Red. masses --      1.0418                 1.4169                 1.9081
 Frc consts  --      1.3339                 1.8361                 2.5206
 IR Inten    --      9.9554                20.4320                53.0897

                     52                     53                     54
                      A                      A                      A
 Frequencies --   1573.5583              1677.2833              1690.9739
 Red. masses --      4.1178                 7.0628                 6.8971
 Frc consts  --      6.0074                11.7068                11.6195
 IR Inten    --    303.1629               177.4780                18.1494

                     55                     56                     57
                      A                      A                      A
 Frequencies --   1739.3767              1863.6328              3052.3006
 Red. masses --      6.2418                10.0225                 1.0329
 Frc consts  --     11.1262                20.5092                 5.6695
 IR Inten    --     62.8493               591.2214                36.4456

                     58                     59                     60
                      A                      A                      A
 Frequencies --   3127.7253              3136.2125              3184.3366
 Red. masses --      1.1061                 1.0892                 1.1034
 Frc consts  --      6.3751                 6.3121                 6.5922
 IR Inten    --     23.8429                25.9894                14.5908

                     61                     62                     63
                      A                      A                      A
 Frequencies --   3203.6983              3218.4864              3226.5453
 Red. masses --      1.0915                 1.0908                 1.0910
 Frc consts  --      6.6004                 6.6573                 6.6917
 IR Inten    --      2.2462                 1.4335                 3.4548

                     64                     65                     66
                      A                      A                      A
 Frequencies --   3241.0606              3842.5033              3896.2278
 Red. masses --      1.0946                 1.0653                 1.0653
 Frc consts  --      6.7748                 9.2673                 9.5279
 IR Inten    --      2.4229               162.7117                32.5205

 - Thermochemistry -
 -------------------
 Temperature   298.150 Kelvin.  Pressure   1.00000 Atm.
 Atom     1 has atomic number  6 and mass  12.00000

 Molecular mass:   194.05791 amu.
 Principal axes and moments of inertia in atomic units:
                           1         2         3
     Eigenvalues --  1164.567826306.624507459.54370
           X            0.99994   0.01107   0.00006
           Y           -0.01107   0.99994   0.00001
           Z           -0.00006  -0.00002   1.00000
 This molecule is an asymmetric top.
 Rotational symmetry number  1.
 Warning -- assumption of classical behavior for rotation
           may cause significant error
 Rotational temperatures (Kelvin)      0.07437     0.01373     0.01161
 Rotational constants (GHZ):           1.54971     0.28617     0.24194
    1 imaginary frequencies ignored.
 Zero-point vibrational energy     491883.6 (Joules/Mol)
                                  117.56300 (Kcal/Mol)
 Warning -- explicit consideration of  20 degrees of freedom as
           vibrations may cause significant error
 Vibrational temperatures:     71.64   110.78   123.02   133.67   250.03
          (Kelvin)            308.74   343.89   344.00   437.02   449.44
                              533.21   542.09   586.09   648.76   679.38
                              703.17   759.64   827.01   843.65   876.52
                              951.02  1055.24  1107.77  1124.71  1185.58
                             1231.11  1274.82  1331.20  1342.90  1404.91
                             1427.36  1451.76  1566.53  1649.23  1688.79
                             1725.51  1740.83  1754.93  1770.93  1821.92
                             1873.28  1887.09  1913.49  1959.26  1977.49
                             2057.55  2104.36  2120.99  2133.74  2154.35
                             2264.00  2413.23  2432.93  2502.57  2681.35
                             4391.57  4500.09  4512.30  4581.54  4609.40
                             4630.68  4642.27  4663.16  5528.50  5605.80

 Zero-point correction=                           0.187349 (Hartree/Particle)
 Thermal correction to Energy=                    0.199722
 Thermal correction to Enthalpy=                  0.200666
 Thermal correction to Gibbs Free Energy=         0.147958
 Sum of electronic and zero-point Energies=           -687.619880
 Sum of electronic and thermal Energies=              -687.607507
 Sum of electronic and thermal Enthalpies=            -687.606563
 Sum of electronic and thermal Free Energies=         -687.659271

                     E (Thermal)             CV                S
                      KCal/Mol        Cal/Mol-Kelvin    Cal/Mol-Kelvin
 Total                  125.327             46.985            110.934
 Electronic               0.000              0.000              0.000
 Translational            0.889              2.981             41.694
 Rotational               0.889              2.981             32.371
 Vibrational            123.550             41.023             36.869
 Vibration     1          0.595              1.978              4.826
 Vibration     2          0.599              1.965              3.966
 Vibration     3          0.601              1.959              3.760
 Vibration     4          0.602              1.954              3.598
 Vibration     5          0.627              1.875              2.394
 Vibration     6          0.645              1.819              2.004
 Vibration     7          0.657              1.781              1.810
 Vibration     8          0.657              1.781              1.810
 Vibration     9          0.695              1.667              1.396
 Vibration    10          0.701              1.650              1.350
 Vibration    11          0.743              1.533              1.077
 Vibration    12          0.747              1.520              1.052
 Vibration    13          0.772              1.454              0.936
 Vibration    14          0.810              1.359              0.793
 Vibration    15          0.829              1.312              0.731
 Vibration    16          0.845              1.275              0.687
 Vibration    17          0.883              1.188              0.592
 Vibration    18          0.931              1.086              0.495
 Vibration    19          0.943              1.061              0.474
 Vibration    20          0.968              1.012              0.434

 Normal termination of Gaussian 09 at Sun Dec 15 01:04:39 2024.
