 Gaussian 09, Revision E.01,
 Gaussian 09:  ES64L-G09RevE.01 30-Nov-2015

 ----------------------------
 # opt freq m062x/aug-cc-pvdz
 ----------------------------

 ----------
 [No Title]
 ----------
 Symbolic Z-matrix:
 Charge =  1 Multiplicity = 1

 SCF Done:  E(RM062X) =  -688.158321635     A.U. after   21 cycles
 SCF Done:  E(RM062X) =  -688.158525862     A.U. after   18 cycles
 SCF Done:  E(RM062X) =  -688.158566273     A.U. after   20 cycles
 SCF Done:  E(RM062X) =  -688.158599058     A.U. after   19 cycles
 SCF Done:  E(RM062X) =  -688.158656289     A.U. after   17 cycles
 SCF Done:  E(RM062X) =  -688.158686869     A.U. after   17 cycles
 SCF Done:  E(RM062X) =  -688.158706654     A.U. after   19 cycles
 SCF Done:  E(RM062X) =  -688.158709675     A.U. after   16 cycles
 SCF Done:  E(RM062X) =  -688.158711532     A.U. after   15 cycles
 SCF Done:  E(RM062X) =  -688.158711914     A.U. after   14 cycles
 SCF Done:  E(RM062X) =  -688.158712062     A.U. after   14 cycles
 SCF Done:  E(RM062X) =  -688.158712091     A.U. after   15 cycles
 Optimization completed.
    -- Stationary point found.
 Normal termination of Gaussian 09 at Sun Dec 15 01:34:38 2024.

 ----------------------------------------------------------------------
 #N Geom=AllCheck Guess=TCheck SCRF=Check GenChk RM062X/Aug-CC-pVDZ Fre
 q
 ----------------------------------------------------------------------

 Structure from the checkpoint file:  "pvdzFAyang.chk"
 ----------
 [No Title]
 ----------
 Charge =  1 Multiplicity = 1

                         Standard orientation:
 ---------------------------------------------------------------------
 Center     Atomic      Atomic             Coordinates (Angstroms)
 Number     Number       Type             X           Y           Z
 ---------------------------------------------------------------------
      1          6           0        1.478868   -2.026550   -0.000015
      2          6           0        2.513587   -1.080628    0.000020
      3          6           0        2.228552    0.313631    0.000032
      4          6           0        0.919141    0.736123    0.000001
      5          6           0       -0.139304   -0.217039   -0.000037
      6          6           0        0.168921   -1.599323   -0.000030
      7          8           0        3.771015   -1.498516    0.000052
      8          6           0       -1.470807    0.264251   -0.000056
      9          6           0       -2.633342   -0.488501   -0.000024
     10          6           0       -3.879900    0.131490    0.000020
     11          8           0       -4.949709   -0.629991   -0.000065
     12          8           0       -3.984884    1.443302    0.000182
     13          8           0        3.336367    1.086668    0.000066
     14          6           0        3.149911    2.499266   -0.000088
     15          1           0        1.743070   -3.081440   -0.000038
     16          1           0        0.679574    1.797397   -0.000016
     17          1           0       -0.627480   -2.340287   -0.000082
     18          1           0        4.370042   -0.734407    0.000071
     19          1           0       -1.588319    1.350632   -0.000069
     20          1           0       -2.649060   -1.573746   -0.000018
     21          1           0       -5.793659   -0.155444    0.000125
     22          1           0       -4.893876    1.775132   -0.000417
     23          1           0        4.150375    2.934363   -0.000135
     24          1           0        2.606624    2.809791   -0.902304
     25          1           0        2.606633    2.809994    0.902061
 ---------------------------------------------------------------------

 SCF Done:  E(RM062X) =  -688.158712091     A.U. after    7 cycles

 The electronic state is 1-A.
 Alpha  occ. eigenvalues --  -19.88425 -19.88280 -19.81351 -19.81132 -10.88635
 Alpha  occ. eigenvalues --  -10.76861 -10.75030 -10.74686 -10.71852 -10.71116
 Alpha  occ. eigenvalues --  -10.70538 -10.70292 -10.70168 -10.68728  -1.44894
 Alpha  occ. eigenvalues --   -1.36614  -1.35032  -1.31926  -1.11435  -1.07433
 Alpha  occ. eigenvalues --   -1.01022  -0.99498  -0.94449  -0.91897  -0.88626
 Alpha  occ. eigenvalues --   -0.86550  -0.83035  -0.79989  -0.78062  -0.75957
 Alpha  occ. eigenvalues --   -0.73242  -0.72447  -0.71421  -0.69673  -0.68224
 Alpha  occ. eigenvalues --   -0.65530  -0.64768  -0.64134  -0.63250  -0.62917
 Alpha  occ. eigenvalues --   -0.62632  -0.61577  -0.58899  -0.58593  -0.57560
 Alpha  occ. eigenvalues --   -0.54457  -0.53899  -0.53836  -0.49535  -0.43797
 Alpha  occ. eigenvalues --   -0.39718
 Alpha virt. eigenvalues --   -0.21852  -0.14568  -0.10763  -0.10462  -0.10320
 Alpha virt. eigenvalues --   -0.09473  -0.08623  -0.08330  -0.07183  -0.06902
 Alpha virt. eigenvalues --   -0.06177  -0.06163  -0.05463  -0.04552  -0.04232

 Mulliken charges:
               1
     1  C    0.917834
     2  C   -0.892207
     3  C   -0.039591
     4  C    1.633485
     5  C    2.410655
     6  C    1.048425
     7  O   -0.493572
     8  C    0.515750
     9  C    1.395521
    10  C    0.271292
    11  O   -0.496758
    12  O   -0.465427
    13  O   -0.681335
    14  C    1.119574
    15  H   -0.867999
    16  H   -1.375826
    17  H   -1.000563
    18  H    0.218284
    19  H   -0.986785
    20  H   -0.980325
    21  H    0.260027
    22  H    0.218171
    23  H   -0.517093
    24  H   -0.105754
    25  H   -0.105783
 Sum of Mulliken charges =   1.00000

 Dipole moment (field-independent basis, Debye):
    X=             -8.3789    Y=              3.3897    Z=             -0.0008  Tot=              9.0385
 Quadrupole moment (field-independent basis, Debye-Ang):
   XX=              9.8972   YY=            -61.3423   ZZ=            -83.0906
   XY=             -2.8965   XZ=              0.0025   YZ=             -0.0024

  Exact polarizability: 312.546 -18.128 137.513  -0.002   0.000  74.173
 Approx polarizability: 360.076 -31.578 177.946   0.002   0.001 102.237

                      1                      2                      3
                      A                      A                      A
 Frequencies --     53.5534                64.5186                86.4665
 Red. masses --      8.0656                 5.8022                 5.2862
 Frc consts  --      0.0136                 0.0142                 0.0233
 IR Inten    --      0.3935                 1.4869                 1.0006

                      4                      5                      6
                      A                      A                      A
 Frequencies --    101.0223               158.1608               169.5314
 Red. masses --      3.3310                 4.6814                 2.1091
 Frc consts  --      0.0200                 0.0690                 0.0357
 IR Inten    --      3.4468                 2.7803                 8.5866

                      7                      8                      9
                      A                      A                      A
 Frequencies --    210.9251               232.5833               233.4733
 Red. masses --      4.1717                 6.7594                 1.4116
 Frc consts  --      0.1093                 0.2154                 0.0453
 IR Inten    --      8.3261                 4.8117                 0.1037

                     10                     11                     12
                      A                      A                      A
 Frequencies --    290.2162               316.1636               340.9437
 Red. masses --      1.2609                 5.9590                 2.8068
 Frc consts  --      0.0626                 0.3510                 0.1922
 IR Inten    --      0.2787                 0.1043                 0.1873

                     13                     14                     15
                      A                      A                      A
 Frequencies --    367.1689               381.5639               470.9268
 Red. masses --      4.6945                 2.1573                 3.0987
 Frc consts  --      0.3729                 0.1851                 0.4049
 IR Inten    --     10.7882                 0.0072                 1.1237

                     16                     17                     18
                      A                      A                      A
 Frequencies --    480.1337               500.2326               527.8377
 Red. masses --      1.1878                 5.5659                 5.5918
 Frc consts  --      0.1613                 0.8206                 0.9179
 IR Inten    --    237.9212                24.8792                21.5726

                     19                     20                     21
                      A                      A                      A
 Frequencies --    569.8303               583.1385               589.2600
 Red. masses --      5.1666                 4.0384                 1.1668
 Frc consts  --      0.9884                 0.8091                 0.2387
 IR Inten    --     63.5100                 3.8344               117.2831

                     22                     23                     24
                      A                      A                      A
 Frequencies --    616.1884               637.2098               724.7205
 Red. masses --      2.6638                 4.4607                 5.0346
 Frc consts  --      0.5959                 1.0671                 1.5580
 IR Inten    --      0.9896                 3.5367                 0.8397

                     25                     26                     27
                      A                      A                      A
 Frequencies --    778.1590               786.0399               830.5611
 Red. masses --      3.4415                 5.5289                 5.1669
 Frc consts  --      1.2278                 2.0127                 2.1000
 IR Inten    --      0.1113                15.5493                 3.4207

                     28                     29                     30
                      A                      A                      A
 Frequencies --    860.4453               887.6912               903.9272
 Red. masses --      1.6850                 1.5910                 1.4578
 Frc consts  --      0.7350                 0.7386                 0.7018
 IR Inten    --     19.7938                48.3034                 2.9184

                     31                     32                     33
                      A                      A                      A
 Frequencies --    974.9633              1006.8807              1009.3256
 Red. masses --      3.2241                 1.3865                 4.9315
 Frc consts  --      1.8057                 0.8282                 2.9600
 IR Inten    --     74.8297                 4.2509               103.7476

                     34                     35                     36
                      A                      A                      A
 Frequencies --   1025.9900              1075.3457              1146.4016
 Red. masses --      1.3648                 3.7408                 1.3999
 Frc consts  --      0.8464                 2.5486                 1.0840
 IR Inten    --     16.5460                39.6332               246.8632

                     37                     38                     39
                      A                      A                      A
 Frequencies --   1149.3928              1173.7454              1185.0669
 Red. masses --      1.1372                 1.2753                 1.5824
 Frc consts  --      0.8852                 1.0352                 1.3093
 IR Inten    --     84.5046                 0.7484              2209.0045

                     40                     41                     42
                      A                      A                      A
 Frequencies --   1206.1447              1227.9302              1232.1813
 Red. masses --      1.4801                 1.2960                 1.4444
 Frc consts  --      1.2687                 1.1513                 1.2921
 IR Inten    --      8.9958                43.3066                59.5312

                     43                     44                     45
                      A                      A                      A
 Frequencies --   1281.4501              1305.1170              1338.8447
 Red. masses --      1.8507                 1.7443                 1.4374
 Frc consts  --      1.7906                 1.7505                 1.5181
 IR Inten    --     61.2997               115.2216               232.7889

                     46                     47                     48
                      A                      A                      A
 Frequencies --   1345.0106              1385.0225              1447.8492
 Red. masses --      2.5808                 4.1285                 2.9808
 Frc consts  --      2.7507                 4.6661                 3.6815
 IR Inten    --     59.9828               518.2539               251.3311

                     49                     50                     51
                      A                      A                      A
 Frequencies --   1466.9652              1481.5092              1484.3434
 Red. masses --      1.2775                 1.0405                 1.4076
 Frc consts  --      1.6198                 1.3456                 1.8272
 IR Inten    --     17.8315                12.8136               117.5790

                     52                     53                     54
                      A                      A                      A
 Frequencies --   1498.9691              1528.9242              1576.3175
 Red. masses --      2.4496                 6.2724                 4.4804
 Frc consts  --      3.2428                 8.6389                 6.5593
 IR Inten    --    209.9617               282.3275              1266.7373

                     55                     56                     57
                      A                      A                      A
 Frequencies --   1626.5547              1644.1827              1653.1701
 Red. masses --      4.4008                 4.6939                 5.8627
 Frc consts  --      6.8599                 7.4762                 9.4403
 IR Inten    --   1744.7752                38.0847               164.9528

                     58                     59                     60
                      A                      A                      A
 Frequencies --   1698.3295              3062.3879              3145.6619
 Red. masses --      5.9962                 1.0327                 1.1071
 Frc consts  --     10.1898                 5.7059                 6.4546
 IR Inten    --    331.6820                19.0780                15.0141

                     61                     62                     63
                      A                      A                      A
 Frequencies --   3195.6004              3205.4002              3215.2906
 Red. masses --      1.0913                 1.1044                 1.0919
 Frc consts  --      6.5659                 6.6855                 6.6506
 IR Inten    --      0.3792                 4.3957                 0.1988

                     64                     65                     66
                      A                      A                      A
 Frequencies --   3237.9796              3245.1747              3255.7202
 Red. masses --      1.0923                 1.0920                 1.0958
 Frc consts  --      6.7472                 6.7755                 6.8432
 IR Inten    --      1.6240                 3.8262                 3.2230

                     67                     68                     69
                      A                      A                      A
 Frequencies --   3775.4750              3805.5875              3820.9717
 Red. masses --      1.0652                 1.0683                 1.0666
 Frc consts  --      8.9462                 9.1156                 9.1745
 IR Inten    --    393.5430               129.1843               706.0255

 - Thermochemistry -
 -------------------
 Temperature   298.150 Kelvin.  Pressure   1.00000 Atm.
 Atom     1 has atomic number  6 and mass  12.00000

 Molecular mass:   195.06573 amu.
 Principal axes and moments of inertia in atomic units:
                           1         2         3
     Eigenvalues --  1171.007946271.564767430.85528
           X            0.99994   0.01054   0.00000
           Y           -0.01054   0.99994  -0.00000
           Z           -0.00000   0.00000   1.00000
 This molecule is an asymmetric top.
 Rotational symmetry number  1.
 Warning -- assumption of classical behavior for rotation
           may cause significant error
 Rotational temperatures (Kelvin)      0.07397     0.01381     0.01166
 Rotational constants (GHZ):           1.54119     0.28777     0.24287
 Zero-point vibrational energy     525721.5 (Joules/Mol)
                                  125.65045 (Kcal/Mol)
 Warning -- explicit consideration of  22 degrees of freedom as
           vibrations may cause significant error
 Vibrational temperatures:     77.05    92.83   124.41   145.35   227.56
          (Kelvin)            243.92   303.47   334.64   335.92   417.56
                              454.89   490.54   528.27   548.98   677.56
                              690.80   719.72   759.44   819.86   839.01
                              847.81   886.56   916.80  1042.71  1119.60
                             1130.93  1194.99  1237.99  1277.19  1300.55
                             1402.75  1448.67  1452.19  1476.17  1547.18
                             1649.41  1653.72  1688.76  1705.04  1735.37
                             1766.72  1772.83  1843.72  1877.77  1926.30
                             1935.17  1992.74  2083.13  2110.63  2131.56
                             2135.64  2156.68  2199.78  2267.97  2340.25
                             2365.61  2378.54  2443.51  4406.09  4525.90
                             4597.75  4611.85  4626.08  4658.72  4669.08
                             4684.25  5432.06  5475.38  5497.52

 Zero-point correction=                           0.200237 (Hartree/Particle)
 Thermal correction to Energy=                    0.213498
 Thermal correction to Enthalpy=                  0.214442
 Thermal correction to Gibbs Free Energy=         0.160074
 Sum of electronic and zero-point Energies=           -687.958475
 Sum of electronic and thermal Energies=              -687.945214
 Sum of electronic and thermal Enthalpies=            -687.944270
 Sum of electronic and thermal Free Energies=         -687.998638

                     E (Thermal)             CV                S
                      KCal/Mol        Cal/Mol-Kelvin    Cal/Mol-Kelvin
 Total                  133.972             50.169            114.427
 Electronic               0.000              0.000              0.000
 Translational            0.889              2.981             41.710
 Rotational               0.889              2.981             32.368
 Vibrational            132.194             44.207             40.350
 Vibration     1          0.596              1.976              4.682
 Vibration     2          0.597              1.971              4.314
 Vibration     3          0.601              1.959              3.738
 Vibration     4          0.604              1.948              3.435
 Vibration     5          0.621              1.893              2.572
 Vibration     6          0.625              1.880              2.441
 Vibration     7          0.643              1.824              2.036
 Vibration     8          0.653              1.791              1.859
 Vibration     9          0.654              1.790              1.852
 Vibration    10          0.686              1.692              1.473
 Vibration    11          0.703              1.643              1.330
 Vibration    12          0.720              1.594              1.208
 Vibration    13          0.740              1.540              1.092
 Vibration    14          0.751              1.509              1.033
 Vibration    15          0.828              1.315              0.735
 Vibration    16          0.836              1.294              0.710
 Vibration    17          0.856              1.249              0.658
 Vibration    18          0.883              1.188              0.592
 Vibration    19          0.926              1.097              0.505
 Vibration    20          0.940              1.068              0.480
 Vibration    21          0.947              1.055              0.469
 Vibration    22          0.976              0.998              0.423

 Optimization completed.
    -- Stationary point found.
 Normal termination of Gaussian 09 at Sun Dec 15 01:52:26 2024.
