 Gaussian 09, Revision E.01,
 Gaussian 09:  ES64L-G09RevE.01 30-Nov-2015

 -------------------------------------------------------
 # opt freq B2PLYP/6-31+g(d,p) EmpiricalDispersion=GD3BJ
 -------------------------------------------------------

 ----------
 [No Title]
 ----------
 Symbolic Z-matrix:
 Charge =  1 Multiplicity = 1

 SCF Done:  E(RB2PLYP) =  -801.349098689     A.U. after   16 cycles
 E2(B2PLYP) =    -0.7920288035D+00 E(B2PLYP) =    -0.80214112749290D+03
 SCF Done:  E(RB2PLYP) =  -801.348603230     A.U. after   12 cycles
 E2(B2PLYP) =    -0.7928418036D+00 E(B2PLYP) =    -0.80214144503408D+03
 SCF Done:  E(RB2PLYP) =  -801.348403979     A.U. after   11 cycles
 E2(B2PLYP) =    -0.7930762585D+00 E(B2PLYP) =    -0.80214148023729D+03
 SCF Done:  E(RB2PLYP) =  -801.348352219     A.U. after   11 cycles
 E2(B2PLYP) =    -0.7931332378D+00 E(B2PLYP) =    -0.80214148545706D+03
 SCF Done:  E(RB2PLYP) =  -801.348324363     A.U. after   11 cycles
 E2(B2PLYP) =    -0.7931646147D+00 E(B2PLYP) =    -0.80214148897789D+03
 SCF Done:  E(RB2PLYP) =  -801.348332236     A.U. after   11 cycles
 E2(B2PLYP) =    -0.7931594010D+00 E(B2PLYP) =    -0.80214149163679D+03
 SCF Done:  E(RB2PLYP) =  -801.348348388     A.U. after   10 cycles
 E2(B2PLYP) =    -0.7931445437D+00 E(B2PLYP) =    -0.80214149293188D+03
 SCF Done:  E(RB2PLYP) =  -801.348354271     A.U. after    9 cycles
 E2(B2PLYP) =    -0.7931388966D+00 E(B2PLYP) =    -0.80214149316734D+03
 Optimization completed.
    -- Stationary point found.
 Normal termination of Gaussian 09 at Wed Dec 18 09:01:37 2024.

 ----------------------------------------------------------------------
 #N Geom=AllCheck Guess=TCheck SCRF=Check GenChk RB2PLYP(FC)/6-31+G(d,p
 ) Freq
 ----------------------------------------------------------------------

 Structure from the checkpoint file:  "B2PLYPD3BJSAYang.chk"
 ----------
 [No Title]
 ----------
 Charge =  1 Multiplicity = 1

                         Standard orientation:
 ---------------------------------------------------------------------
 Center     Atomic      Atomic             Coordinates (Angstroms)
 Number     Number       Type             X           Y           Z
 ---------------------------------------------------------------------
      1          6           0       -2.398898    0.204476    0.001225
      2          6           0       -1.929542   -1.133893   -0.008569
      3          6           0       -0.561032   -1.354944   -0.012579
      4          6           0        0.357393   -0.266016   -0.009931
      5          6           0       -0.124435    1.073530    0.004991
      6          6           0       -1.485242    1.295358    0.007160
      7          8           0       -3.708377    0.423475    0.005282
      8          8           0       -2.893966   -2.071300   -0.011760
      9          6           0       -2.490829   -3.446708   -0.023068
     10          8           0       -2.119127    2.494715    0.018900
     11          6           0       -1.319768    3.687795    0.024386
     12          6           0        1.733408   -0.574721   -0.014969
     13          6           0        2.798566    0.323895   -0.026152
     14          6           0        4.110817   -0.116043    0.000493
     15          8           0        5.084834    0.775283   -0.135803
     16          8           0        4.399852   -1.403694    0.171806
     17          1           0       -0.170566   -2.363341   -0.020323
     18          1           0        0.564871    1.904784    0.012788
     19          1           0       -3.867806    1.384527    0.012936
     20          1           0       -3.415799   -4.015086   -0.024792
     21          1           0       -1.914693   -3.671297   -0.923861
     22          1           0       -1.909852   -3.684768    0.871131
     23          1           0       -2.027759    4.510691    0.031532
     24          1           0       -0.698015    3.721595    0.921197
     25          1           0       -0.702733    3.732921   -0.875190
     26          1           0        1.988384   -1.630517   -0.008198
     27          1           0        2.663958    1.395175   -0.060172
     28          1           0        5.955335    0.459796    0.153308
     29          1           0        5.286320   -1.648676   -0.135694
 ---------------------------------------------------------------------

 SCF Done:  E(RB2PLYP) =  -801.348354271     A.U. after    1 cycles
 E2(B2PLYP) =    -0.7931388936D+00 E(B2PLYP) =    -0.80214149316427D+03
 E2(B2PLYP) =    -0.7931388935D+00 E(B2PLYP) =    -0.80214149316427D+03

 The electronic state is 1-A.
 Alpha  occ. eigenvalues --  -19.98400 -19.98197 -19.91672 -19.91317 -19.89243
 Alpha  occ. eigenvalues --  -10.96510 -10.85106 -10.83576 -10.82952 -10.82888
 Alpha  occ. eigenvalues --  -10.79821 -10.78967 -10.78818 -10.78262 -10.78177
 Alpha  occ. eigenvalues --  -10.78010  -1.45797  -1.37707  -1.36965  -1.33925
 Alpha  occ. eigenvalues --   -1.32447  -1.13375  -1.08859  -1.02514  -1.00926
 Alpha  occ. eigenvalues --   -0.95412  -0.94570  -0.90975  -0.87820  -0.87154
 Alpha  occ. eigenvalues --   -0.82760  -0.80132  -0.78178  -0.75961  -0.73718
 Alpha  occ. eigenvalues --   -0.72100  -0.71544  -0.70284  -0.68591  -0.68053
 Alpha  occ. eigenvalues --   -0.67669  -0.65993  -0.65051  -0.62790  -0.62482
 Alpha  occ. eigenvalues --   -0.62126  -0.61662  -0.60567  -0.59944  -0.58901
 Alpha  occ. eigenvalues --   -0.56504  -0.55988  -0.54362  -0.53944  -0.52215
 Alpha  occ. eigenvalues --   -0.52170  -0.46944  -0.40462  -0.37743
 Alpha virt. eigenvalues --   -0.20109  -0.12087  -0.08354  -0.07214  -0.06967
 Alpha virt. eigenvalues --   -0.06776  -0.05985  -0.05354  -0.04122  -0.03789
 Alpha virt. eigenvalues --   -0.03212  -0.02401  -0.02203  -0.02096  -0.01485

 Mulliken charges:
               1
     1  C   -0.137833
     2  C    0.405835
     3  C    0.114189
     4  C   -0.339232
     5  C   -0.073252
     6  C    0.242465
     7  O   -0.505008
     8  O   -0.401122
     9  C   -0.063866
    10  O   -0.494949
    11  C   -0.066695
    12  C    0.107399
    13  C   -0.637696
    14  C    0.939747
    15  O   -0.452578
    16  O   -0.500528
    17  H    0.167250
    18  H    0.153607
    19  H    0.436527
    20  H    0.175699
    21  H    0.145241
    22  H    0.145580
    23  H    0.175160
    24  H    0.152149
    25  H    0.152275
    26  H    0.188791
    27  H    0.176709
    28  H    0.396435
    29  H    0.397699
 Sum of Mulliken charges =   1.00000

 Dipole moment (field-independent basis, Debye):
    X=             10.5736    Y=             -0.2280    Z=             -0.0370  Tot=             10.5761
 Quadrupole moment (field-independent basis, Debye-Ang):
   XX=            -13.7117   YY=            -56.6992   ZZ=            -94.7874
   XY=            -11.5891   XZ=              0.2895   YZ=              1.6340

  Exact polarizability: 351.913  -8.459 166.191  -0.265  -0.266  81.368
 Approx polarizability: 380.464 -12.577 177.892  -0.579  -0.693 103.431

                      1                      2                      3
                      A                      A                      A
 Frequencies --     46.3645                54.3800                62.0087
 Red. masses --      6.1085                 5.1659                 3.3022
 Frc consts  --      0.0077                 0.0090                 0.0075
 IR Inten    --      0.8380                 0.4950                 9.2441

                      4                      5                      6
                      A                      A                      A
 Frequencies --     74.1921                98.3728               134.1013
 Red. masses --      5.1166                 3.6403                 5.8679
 Frc consts  --      0.0166                 0.0208                 0.0622
 IR Inten    --      0.5804                 0.0940                 0.6769

                      7                      8                      9
                      A                      A                      A
 Frequencies --    168.9679               173.4319               191.8772
 Red. masses --      3.8155                 3.7262                 1.4812
 Frc consts  --      0.0642                 0.0660                 0.0321
 IR Inten    --      9.5524                 2.6636                 3.7239

                     10                     11                     12
                      A                      A                      A
 Frequencies --    199.0421               236.1270               248.3987
 Red. masses --      3.8017                 1.2169                 4.9997
 Frc consts  --      0.0887                 0.0400                 0.1818
 IR Inten    --     12.3852                 2.4488                 2.4608

                     13                     14                     15
                      A                      A                      A
 Frequencies --    265.4524               295.5637               309.3343
 Red. masses --      1.8063                 1.7771                 5.1576
 Frc consts  --      0.0750                 0.0915                 0.2908
 IR Inten    --     28.9291               157.4944                25.8227

                     16                     17                     18
                      A                      A                      A
 Frequencies --    341.7596               360.7536               376.8501
 Red. masses --      1.9688                 4.3962                 4.3684
 Frc consts  --      0.1355                 0.3371                 0.3655
 IR Inten    --    170.3862                 3.0008                 0.6895

                     19                     20                     21
                      A                      A                      A
 Frequencies --    397.4575               414.1526               476.8425
 Red. masses --      2.9339                 1.2128                 6.8631
 Frc consts  --      0.2731                 0.1226                 0.9194
 IR Inten    --     28.8609               243.2764                 3.2187

                     22                     23                     24
                      A                      A                      A
 Frequencies --    500.1097               528.0113               528.9481
 Red. masses --      6.0249                 3.2379                 5.7763
 Frc consts  --      0.8878                 0.5319                 0.9522
 IR Inten    --      7.1922                17.5170                 5.4602

                     25                     26                     27
                      A                      A                      A
 Frequencies --    530.7078               581.9392               585.2509
 Red. masses --      4.8886                 3.7124                 2.2818
 Frc consts  --      0.8112                 0.7407                 0.4605
 IR Inten    --     22.0898                 6.8544                32.0284

                     28                     29                     30
                      A                      A                      A
 Frequencies --    605.6482               663.4783               678.9626
 Red. masses --      2.1219                 4.8617                 4.4604
 Frc consts  --      0.4586                 1.2609                 1.2115
 IR Inten    --     61.0261                 2.1464                 6.3233

                     31                     32                     33
                      A                      A                      A
 Frequencies --    712.7436               784.3492               812.7049
 Red. masses --      5.1379                 1.4425                 1.2474
 Frc consts  --      1.5378                 0.5229                 0.4854
 IR Inten    --     58.8803                 5.2509                26.8879

                     34                     35                     36
                      A                      A                      A
 Frequencies --    837.6953               839.8298               934.6950
 Red. masses --      2.1721                 2.6438                 5.4886
 Frc consts  --      0.8981                 1.0987                 2.8252
 IR Inten    --     23.7111                14.0222                 4.9803

                     37                     38                     39
                      A                      A                      A
 Frequencies --    975.8079               985.0525              1017.9142
 Red. masses --      1.2975                 4.4754                 4.3980
 Frc consts  --      0.7279                 2.5586                 2.6849
 IR Inten    --     64.2446               205.5525                27.8400

                     40                     41                     42
                      A                      A                      A
 Frequencies --   1063.9019              1151.0139              1161.2541
 Red. masses --      4.5200                 3.2839                 1.1647
 Frc consts  --      3.0143                 2.5633                 0.9254
 IR Inten    --      3.8947               318.7275               222.0692

                     43                     44                     45
                      A                      A                      A
 Frequencies --   1174.2701              1181.2446              1183.5121
 Red. masses --      1.5001                 1.2619                 1.2560
 Frc consts  --      1.2187                 1.0375                 1.0366
 IR Inten    --   1091.1795                 1.9607                 1.0943

                     46                     47                     48
                      A                      A                      A
 Frequencies --   1214.5619              1220.3141              1239.3573
 Red. masses --      1.4610                 1.3477                 1.7408
 Frc consts  --      1.2698                 1.1824                 1.5754
 IR Inten    --      1.7746                 3.5131                41.1541

                     49                     50                     51
                      A                      A                      A
 Frequencies --   1271.6570              1292.7315              1315.3660
 Red. masses --      1.8617                 1.8046                 1.6032
 Frc consts  --      1.7738                 1.7768                 1.6342
 IR Inten    --    343.0396                16.4038               342.2810

                     52                     53                     54
                      A                      A                      A
 Frequencies --   1337.3576              1354.8405              1399.4737
 Red. masses --      1.6351                 2.9332                 3.0472
 Frc consts  --      1.7231                 3.1723                 3.5162
 IR Inten    --      0.2311                64.8642               476.3111

                     55                     56                     57
                      A                      A                      A
 Frequencies --   1439.0477              1472.7214              1492.4567
 Red. masses --      4.4864                 4.0385                 1.2845
 Frc consts  --      5.4740                 5.1607                 1.6858
 IR Inten    --    889.9136               300.9233                21.9183

                     58                     59                     60
                      A                      A                      A
 Frequencies --   1503.7362              1517.6937              1520.0873
 Red. masses --      1.3381                 1.0482                 1.0486
 Frc consts  --      1.7827                 1.4226                 1.4276
 IR Inten    --     51.9011                12.7347                12.7260

                     61                     62                     63
                      A                      A                      A
 Frequencies --   1525.9870              1526.4043              1538.9264
 Red. masses --      1.1391                 1.0529                 4.0253
 Frc consts  --      1.5629                 1.4454                 5.6168
 IR Inten    --    205.7309                36.6600               338.0986

                     64                     65                     66
                      A                      A                      A
 Frequencies --   1547.3480              1615.5758              1630.7295
 Red. masses --      3.9531                 4.6330                 5.3405
 Frc consts  --      5.5765                 7.1247                 8.3675
 IR Inten    --    534.5075                89.7261               361.6539

                     67                     68                     69
                      A                      A                      A
 Frequencies --   1653.5710              1685.0217              3072.2966
 Red. masses --      4.4799                 5.1964                 1.0329
 Frc consts  --      7.2171                 8.6929                 5.7445
 IR Inten    --    623.8708              1033.9490                29.0027

                     70                     71                     72
                      A                      A                      A
 Frequencies --   3080.8317              3153.5653              3165.9998
 Red. masses --      1.0320                 1.1081                 1.1087
 Frc consts  --      5.7712                 6.4927                 6.5477
 IR Inten    --     21.9140                22.9194                17.9199

                     73                     74                     75
                      A                      A                      A
 Frequencies --   3211.9955              3227.3153              3230.3291
 Red. masses --      1.0898                 1.1023                 1.1036
 Frc consts  --      6.6243                 6.7645                 6.7848
 IR Inten    --      0.6022                 5.5471                 4.4147

                     76                     77                     78
                      A                      A                      A
 Frequencies --   3258.7769              3268.7797              3279.3272
 Red. masses --      1.0909                 1.0915                 1.0898
 Frc consts  --      6.8259                 6.8716                 6.9052
 IR Inten    --      1.6487                 3.4062                 0.0905

                     79                     80                     81
                      A                      A                      A
 Frequencies --   3724.2883              3790.8509              3800.1784
 Red. masses --      1.0651                 1.0678                 1.0661
 Frc consts  --      8.7039                 9.0412                 9.0713
 IR Inten    --    400.5807                88.8659               662.2116

 - Thermochemistry -
 -------------------
 Temperature   298.150 Kelvin.  Pressure   1.00000 Atm.
 Atom     1 has atomic number  6 and mass  12.00000

 Molecular mass:   225.07630 amu.
 Principal axes and moments of inertia in atomic units:
                           1         2         3
     Eigenvalues --  2539.049946576.708129086.44538
           X            0.99999   0.00353   0.00004
           Y           -0.00353   0.99999   0.00127
           Z           -0.00004  -0.00127   1.00000
 This molecule is an asymmetric top.
 Rotational symmetry number  1.
 Warning -- assumption of classical behavior for rotation
           may cause significant error
 Rotational temperatures (Kelvin)      0.03411     0.01317     0.00953
 Rotational constants (GHZ):           0.71079     0.27441     0.19862
 Zero-point vibrational energy     607248.2 (Joules/Mol)
                                  145.13581 (Kcal/Mol)
 Warning -- explicit consideration of  28 degrees of freedom as
           vibrations may cause significant error
 Vibrational temperatures:     66.71    78.24    89.22   106.75   141.54
          (Kelvin)            192.94   243.11   249.53   276.07   286.38
                              339.73   357.39   381.93   425.25   445.06
                              491.72   519.04   542.20   571.85   595.87
                              686.07   719.55   759.69   761.04   763.57
                              837.28   842.04   871.39   954.60   976.87
                             1025.48  1128.50  1169.30  1205.26  1208.33
                             1344.82  1403.97  1417.27  1464.55  1530.72
                             1656.05  1670.78  1689.51  1699.55  1702.81
                             1747.48  1755.76  1783.16  1829.63  1859.95
                             1892.52  1924.16  1949.31  2013.53  2070.47
                             2118.91  2147.31  2163.54  2183.62  2187.06
                             2195.55  2196.15  2214.17  2226.29  2324.45
                             2346.25  2379.12  2424.37  4420.34  4432.62
                             4537.27  4555.16  4621.34  4643.38  4647.72
                             4688.65  4703.04  4718.21  5358.41  5454.18
                             5467.60

 Zero-point correction=                           0.231289 (Hartree/Particle)
 Thermal correction to Energy=                    0.247770
 Thermal correction to Enthalpy=                  0.248714
 Thermal correction to Gibbs Free Energy=         0.187037
 Sum of electronic and zero-point Energies=           -801.910205
 Sum of electronic and thermal Energies=              -801.893723
 Sum of electronic and thermal Enthalpies=            -801.892779
 Sum of electronic and thermal Free Energies=         -801.954456

                     E (Thermal)             CV                S
                      KCal/Mol        Cal/Mol-Kelvin    Cal/Mol-Kelvin
 Total                  155.478             61.043            129.812
 Electronic               0.000              0.000              0.000
 Translational            0.889              2.981             42.136
 Rotational               0.889              2.981             33.384
 Vibrational            153.701             55.081             54.292
 Vibration     1          0.595              1.979              4.967
 Vibration     2          0.596              1.976              4.651
 Vibration     3          0.597              1.972              4.392
 Vibration     4          0.599              1.966              4.039
 Vibration     5          0.604              1.950              3.486
 Vibration     6          0.613              1.919              2.886
 Vibration     7          0.625              1.881              2.447
 Vibration     8          0.627              1.875              2.398
 Vibration     9          0.634              1.851              2.210
 Vibration    10          0.637              1.841              2.142
 Vibration    11          0.655              1.785              1.832
 Vibration    12          0.662              1.765              1.742
 Vibration    13          0.671              1.736              1.626
 Vibration    14          0.690              1.682              1.442
 Vibration    15          0.699              1.656              1.366
 Vibration    16          0.721              1.592              1.204
 Vibration    17          0.735              1.553              1.119
 Vibration    18          0.747              1.519              1.052
 Vibration    19          0.764              1.476              0.972
 Vibration    20          0.778              1.440              0.912
 Vibration    21          0.833              1.301              0.719
 Vibration    22          0.856              1.250              0.658
 Vibration    23          0.883              1.188              0.592
 Vibration    24          0.884              1.186              0.590
 Vibration    25          0.886              1.182              0.586
 Vibration    26          0.939              1.070              0.482
 Vibration    27          0.942              1.063              0.476
 Vibration    28          0.964              1.020              0.440

 Normal termination of Gaussian 09 at Wed Dec 18 10:47:17 2024.
