 Gaussian 09, Revision E.01,
 Gaussian 09:  ES64L-G09RevE.01 30-Nov-2015

 -------------------------------------------------------
 # opt freq B2PLYP/6-31+g(d,p) EmpiricalDispersion=GD3BJ
 -------------------------------------------------------

 ----------
 [No Title]
 ----------
 Symbolic Z-matrix:
 Charge =  0 Multiplicity = 1

 SCF Done:  E(RB2PLYP) =  -801.003575992     A.U. after   16 cycles
 E2(B2PLYP) =    -0.7938724133D+00 E(B2PLYP) =    -0.80179744840491D+03
 SCF Done:  E(RB2PLYP) =  -801.003013656     A.U. after   13 cycles
 E2(B2PLYP) =    -0.7947658481D+00 E(B2PLYP) =    -0.80179777950439D+03
 SCF Done:  E(RB2PLYP) =  -801.002851364     A.U. after   10 cycles
 E2(B2PLYP) =    -0.7949571764D+00 E(B2PLYP) =    -0.80179780854051D+03
 SCF Done:  E(RB2PLYP) =  -801.002824591     A.U. after    9 cycles
 E2(B2PLYP) =    -0.7949856196D+00 E(B2PLYP) =    -0.80179781021075D+03
 SCF Done:  E(RB2PLYP) =  -801.002825386     A.U. after    9 cycles
 E2(B2PLYP) =    -0.7949846846D+00 E(B2PLYP) =    -0.80179781007061D+03
 SCF Done:  E(RB2PLYP) =  -801.002828248     A.U. after    9 cycles
 E2(B2PLYP) =    -0.7949820479D+00 E(B2PLYP) =    -0.80179781029588D+03
 Optimization completed.
    -- Stationary point found.
 Normal termination of Gaussian 09 at Wed Dec 18 13:06:05 2024.

 ----------------------------------------------------------------------
 #N Geom=AllCheck Guess=TCheck SCRF=Check GenChk RB2PLYP(FC)/6-31+G(d,p
 ) Freq
 ----------------------------------------------------------------------

 Structure from the checkpoint file:  "B2PLYPD3BJSA.chk"
 ----------
 [No Title]
 ----------
 Charge =  0 Multiplicity = 1

                         Standard orientation:
 ---------------------------------------------------------------------
 Center     Atomic      Atomic             Coordinates (Angstroms)
 Number     Number       Type             X           Y           Z
 ---------------------------------------------------------------------
      1          6           0       -2.387545    0.216933   -0.000015
      2          6           0       -1.919163   -1.105264   -0.000012
      3          6           0       -0.541937   -1.343257    0.000014
      4          6           0        0.377447   -0.278635    0.000034
      5          6           0       -0.095461    1.046757    0.000036
      6          6           0       -1.465704    1.278418    0.000010
      7          8           0       -3.724079    0.456405   -0.000038
      8          8           0       -2.882706   -2.067565   -0.000035
      9          6           0       -2.452579   -3.425213   -0.000001
     10          8           0       -2.070221    2.512398    0.000011
     11          6           0       -1.227901    3.663328    0.000032
     12          6           0        1.797310   -0.602300    0.000050
     13          6           0        2.838754    0.257242   -0.000004
     14          6           0        4.212416   -0.258641    0.000039
     15          8           0        5.125549    0.755879   -0.000118
     16          8           0        4.553637   -1.432532    0.000037
     17          1           0       -0.162837   -2.355941    0.000015
     18          1           0        0.600871    1.872493    0.000060
     19          1           0       -3.844074    1.418776   -0.000032
     20          1           0       -3.363891   -4.017973   -0.000009
     21          1           0       -1.865439   -3.652983   -0.894335
     22          1           0       -1.865475   -3.652948    0.894366
     23          1           0       -0.600587    3.684177    0.894846
     24          1           0       -0.600557    3.684187   -0.894761
     25          1           0       -1.898340    4.518972    0.000026
     26          1           0        2.046759   -1.660342    0.000111
     27          1           0        2.721622    1.333128   -0.000076
     28          1           0        6.000700    0.335566   -0.000150
 ---------------------------------------------------------------------

 SCF Done:  E(RB2PLYP) =  -801.002828248     A.U. after    1 cycles
 E2(B2PLYP) =    -0.7949820456D+00 E(B2PLYP) =    -0.80179781029361D+03
 E2(B2PLYP) =    -0.7949820455D+00 E(B2PLYP) =    -0.80179781029352D+03

 The electronic state is 1-A.
 Alpha  occ. eigenvalues --  -19.80163 -19.79744 -19.78416 -19.78332 -19.73550
 Alpha  occ. eigenvalues --  -10.77396 -10.71043 -10.70582 -10.70444 -10.69944
 Alpha  occ. eigenvalues --  -10.68556 -10.66519 -10.65733 -10.64731 -10.64591
 Alpha  occ. eigenvalues --  -10.64302  -1.25269  -1.24237  -1.22224  -1.20107
 Alpha  occ. eigenvalues --   -1.15544  -0.99932  -0.93364  -0.88638  -0.87515
 Alpha  occ. eigenvalues --   -0.83230  -0.81013  -0.77519  -0.71306  -0.70690
 Alpha  occ. eigenvalues --   -0.65898  -0.63762  -0.62796  -0.59376  -0.58926
 Alpha  occ. eigenvalues --   -0.58029  -0.57061  -0.56522  -0.55455  -0.54844
 Alpha  occ. eigenvalues --   -0.53065  -0.52124  -0.50704  -0.49674  -0.49574
 Alpha  occ. eigenvalues --   -0.48620  -0.47276  -0.45484  -0.43719  -0.43440
 Alpha  occ. eigenvalues --   -0.43086  -0.42648  -0.41195  -0.40268  -0.38858
 Alpha  occ. eigenvalues --   -0.35406  -0.33022  -0.28143  -0.24968
 Alpha virt. eigenvalues --   -0.02472   0.02391   0.03233   0.03364   0.04014
 Alpha virt. eigenvalues --    0.04866   0.05400   0.05711   0.05938   0.07066
 Alpha virt. eigenvalues --    0.07265   0.08078   0.08213   0.08953   0.09171

 Mulliken charges:
               1
     1  C   -0.198457
     2  C    0.351473
     3  C    0.129680
     4  C   -0.402707
     5  C   -0.098347
     6  C    0.206386
     7  O   -0.575340
     8  O   -0.408945
     9  C   -0.068839
    10  O   -0.499432
    11  C   -0.070637
    12  C    0.115956
    13  C   -0.521041
    14  C    0.854530
    15  O   -0.509947
    16  O   -0.559283
    17  H    0.146688
    18  H    0.134781
    19  H    0.414057
    20  H    0.149465
    21  H    0.137407
    22  H    0.137408
    23  H    0.143702
    24  H    0.143702
    25  H    0.148600
    26  H    0.173096
    27  H    0.143232
    28  H    0.382813
 Sum of Mulliken charges =  -0.00000

 Dipole moment (field-independent basis, Debye):
    X=             -0.6127    Y=              2.5035    Z=              0.0001  Tot=              2.5774
 Quadrupole moment (field-independent basis, Debye-Ang):
   XX=           -106.5575   YY=            -74.9150   ZZ=            -96.9033
   XY=              5.3930   XZ=             -0.0006   YZ=              0.0001

  Exact polarizability: 246.510   2.916 173.803  -0.004   0.007  85.700
 Approx polarizability: 250.610   4.863 192.008   0.000  -0.001 107.717

 ******    1 imaginary frequencies (negative Signs) ******

                      1                      2                      3
                      A                      A                      A
 Frequencies --    -15.5140                49.4656                62.0156
 Red. masses --      5.6931                 2.9455                 7.1669
 Frc consts  --      0.0008                 0.0042                 0.0162
 IR Inten    --      0.2353                 9.1497                 0.2404

                      4                      5                      6
                      A                      A                      A
 Frequencies --     70.9654                75.7230               109.9907
 Red. masses --      5.7013                 3.5267                 3.6108
 Frc consts  --      0.0169                 0.0119                 0.0257
 IR Inten    --      0.4843                 0.2968                 0.3174

                      7                      8                      9
                      A                      A                      A
 Frequencies --    145.5884               176.9602               200.2987
 Red. masses --      5.4488                 4.2843                 4.6462
 Frc consts  --      0.0680                 0.0790                 0.1098
 IR Inten    --      3.0919                 3.7899                 1.6449

                     10                     11                     12
                      A                      A                      A
 Frequencies --    200.5180               226.8234               250.0471
 Red. masses --      1.5393                 1.6750                 5.4167
 Frc consts  --      0.0365                 0.0508                 0.1995
 IR Inten    --      0.0226                 0.0494                 0.9857

                     13                     14                     15
                      A                      A                      A
 Frequencies --    265.3794               285.7577               298.6522
 Red. masses --      1.8281                 1.7342                 6.7190
 Frc consts  --      0.0759                 0.0834                 0.3531
 IR Inten    --      0.3465                 0.0043                 6.3512

                     16                     17                     18
                      A                      A                      A
 Frequencies --    365.6596               369.1987               376.8589
 Red. masses --      4.2771                 4.7866                 4.5176
 Frc consts  --      0.3369                 0.3844                 0.3780
 IR Inten    --      0.6768                 0.4689                 0.7872

                     19                     20                     21
                      A                      A                      A
 Frequencies --    444.7189               481.6759               500.5472
 Red. masses --      1.1601                 5.0777                 6.1625
 Frc consts  --      0.1352                 0.6941                 0.9097
 IR Inten    --     90.1505                10.2944                 8.5421

                     22                     23                     24
                      A                      A                      A
 Frequencies --    510.7594               540.2157               550.6330
 Red. masses --      5.2016                 6.8597                 5.7078
 Frc consts  --      0.7995                 1.1795                 1.0196
 IR Inten    --     24.1422                 2.0242                 0.0167

                     25                     26                     27
                      A                      A                      A
 Frequencies --    578.2050               594.7875               598.9199
 Red. masses --      2.3567                 1.8754                 5.3405
 Frc consts  --      0.4642                 0.3909                 1.1287
 IR Inten    --     13.9133                86.8042                81.1092

                     28                     29                     30
                      A                      A                      A
 Frequencies --    668.7905               709.7314               731.9289
 Red. masses --      4.2117                 5.0002                 3.5861
 Frc consts  --      1.1099                 1.4840                 1.1319
 IR Inten    --      9.1990                 7.8601                28.0625

                     31                     32                     33
                      A                      A                      A
 Frequencies --    778.4704               802.7109               829.4246
 Red. masses --      1.2536                 1.3261                 5.6188
 Frc consts  --      0.4476                 0.5035                 2.2774
 IR Inten    --     20.2416                23.7535                 8.1314

                     34                     35                     36
                      A                      A                      A
 Frequencies --    844.8477               936.3084               979.7492
 Red. masses --      2.0936                 5.4782                 4.2263
 Frc consts  --      0.8804                 2.8296                 2.3902
 IR Inten    --     20.8533                10.1179                11.1268

                     37                     38                     39
                      A                      A                      A
 Frequencies --   1007.1424              1017.8236              1082.6434
 Red. masses --      1.1321                 4.2559                 5.3155
 Frc consts  --      0.6766                 2.5977                 3.6708
 IR Inten    --     30.9450                 2.9424                 4.3054

                     40                     41                     42
                      A                      A                      A
 Frequencies --   1145.2016              1158.1010              1182.0637
 Red. masses --      2.3891                 4.0373                 1.2652
 Frc consts  --      1.8461                 3.1903                 1.0416
 IR Inten    --    709.6071               302.2911                 1.7135

                     43                     44                     45
                      A                      A                      A
 Frequencies --   1184.5306              1201.3959              1221.8332
 Red. masses --      1.2597                 1.8104                 1.3634
 Frc consts  --      1.0414                 1.5395                 1.1992
 IR Inten    --      0.9684                34.8447                 3.0414

                     46                     47                     48
                      A                      A                      A
 Frequencies --   1230.1065              1263.5794              1272.9280
 Red. masses --      1.5080                 1.7957                 1.5733
 Frc consts  --      1.3444                 1.6893                 1.5020
 IR Inten    --     21.3521               272.4508                62.2350

                     49                     50                     51
                      A                      A                      A
 Frequencies --   1302.6638              1318.1022              1353.5449
 Red. masses --      2.5433                 1.6007                 1.4301
 Frc consts  --      2.5428                 1.6385                 1.5437
 IR Inten    --     33.3827               203.3372                33.3836

                     52                     53                     54
                      A                      A                      A
 Frequencies --   1367.7081              1405.4547              1444.8790
 Red. masses --      2.5226                 4.4639                 3.3996
 Frc consts  --      2.7803                 5.1952                 4.1816
 IR Inten    --    219.9461                74.6608               114.9839

                     55                     56                     57
                      A                      A                      A
 Frequencies --   1478.1977              1502.9955              1509.1394
 Red. masses --      2.0733                 1.2743                 1.6537
 Frc consts  --      2.6691                 1.6961                 2.2191
 IR Inten    --    126.8754                 9.8864                58.7634

                     58                     59                     60
                      A                      A                      A
 Frequencies --   1515.5927              1518.0546              1532.9237
 Red. masses --      1.0486                 1.0491                 1.0617
 Frc consts  --      1.4191                 1.4244                 1.4700
 IR Inten    --      8.7290                 8.5984                36.9210

                     61                     62                     63
                      A                      A                      A
 Frequencies --   1533.6752              1566.2409              1644.6782
 Red. masses --      1.0716                 4.2905                 5.9271
 Frc consts  --      1.4850                 6.2012                 9.4462
 IR Inten    --     46.3161               280.6020                68.3930

                     64                     65                     66
                      A                      A                      A
 Frequencies --   1660.5763              1693.4490              1774.4552
 Red. masses --      6.0258                 5.8867                 8.4704
 Frc consts  --      9.7900                 9.9464                15.7139
 IR Inten    --    214.4247               346.8260               314.3906

                     67                     68                     69
                      A                      A                      A
 Frequencies --   3058.8206              3067.4169              3131.7884
 Red. masses --      1.0332                 1.0323                 1.1069
 Frc consts  --      5.6959                 5.7226                 6.3962
 IR Inten    --     51.7594                41.1173                34.5413

                     70                     71                     72
                      A                      A                      A
 Frequencies --   3144.1320              3197.7875              3202.8123
 Red. masses --      1.1074                 1.0893                 1.1012
 Frc consts  --      6.4499                 6.5628                 6.6554
 IR Inten    --     28.4375                 1.4191                20.3116

                     73                     74                     75
                      A                      A                      A
 Frequencies --   3206.1535              3246.0920              3254.2641
 Red. masses --      1.1025                 1.0909                 1.0899
 Frc consts  --      6.6771                 6.7724                 6.8005
 IR Inten    --     17.3932                 4.8799                 2.5930

                     76                     77                     78
                      A                      A                      A
 Frequencies --   3266.7943              3783.7805              3784.3335
 Red. masses --      1.0896                 1.0648                 1.0647
 Frc consts  --      6.8508                 8.9815                 8.9839
 IR Inten    --      3.5616               227.0901                44.5846

 - Thermochemistry -
 -------------------
 Temperature   298.150 Kelvin.  Pressure   1.00000 Atm.
 Atom     1 has atomic number  6 and mass  12.00000

 Molecular mass:   224.06847 amu.
 Principal axes and moments of inertia in atomic units:
                           1         2         3
     Eigenvalues --  2510.477906595.508269082.94478
           X            0.99994   0.01076   0.00000
           Y           -0.01076   0.99994  -0.00000
           Z           -0.00000   0.00000   1.00000
 This molecule is an asymmetric top.
 Rotational symmetry number  1.
 Warning -- assumption of classical behavior for rotation
           may cause significant error
 Rotational temperatures (Kelvin)      0.03450     0.01313     0.00954
 Rotational constants (GHZ):           0.71888     0.27363     0.19870
    1 imaginary frequencies ignored.
 Zero-point vibrational energy     574483.7 (Joules/Mol)
                                  137.30491 (Kcal/Mol)
 Warning -- explicit consideration of  26 degrees of freedom as
           vibrations may cause significant error
 Vibrational temperatures:     71.17    89.23   102.10   108.95   158.25
          (Kelvin)            209.47   254.61   288.18   288.50   326.35
                              359.76   381.82   411.14   429.69   526.10
                              531.19   542.22   639.85   693.02   720.17
                              734.87   777.25   792.24   831.91   855.77
                              861.71   962.24  1021.14  1053.08  1120.04
                             1154.92  1193.36  1215.55  1347.14  1409.64
                             1449.05  1464.42  1557.68  1647.69  1666.25
                             1700.72  1704.27  1728.54  1757.94  1769.85
                             1818.01  1831.46  1874.24  1896.45  1947.45
                             1967.82  2022.13  2078.86  2126.79  2162.47
                             2171.31  2180.60  2184.14  2205.53  2206.61
                             2253.47  2366.32  2389.20  2436.49  2553.04
                             4400.96  4413.32  4505.94  4523.70  4600.90
                             4608.13  4612.93  4670.40  4682.15  4700.18
                             5444.01  5444.81

 Zero-point correction=                           0.218809 (Hartree/Particle)
 Thermal correction to Energy=                    0.234187
 Thermal correction to Enthalpy=                  0.235132
 Thermal correction to Gibbs Free Energy=         0.175755
 Sum of electronic and zero-point Energies=           -801.579001
 Sum of electronic and thermal Energies=              -801.563623
 Sum of electronic and thermal Enthalpies=            -801.562679
 Sum of electronic and thermal Free Energies=         -801.622056

                     E (Thermal)             CV                S
                      KCal/Mol        Cal/Mol-Kelvin    Cal/Mol-Kelvin
 Total                  146.955             57.228            124.969
 Electronic               0.000              0.000              0.000
 Translational            0.889              2.981             42.123
 Rotational               0.889              2.981             33.375
 Vibrational            145.177             51.266             49.472
 Vibration     1          0.595              1.978              4.839
 Vibration     2          0.597              1.972              4.392
 Vibration     3          0.598              1.968              4.126
 Vibration     4          0.599              1.965              3.999
 Vibration     5          0.606              1.941              3.269
 Vibration     6          0.617              1.907              2.729
 Vibration     7          0.628              1.871              2.360
 Vibration     8          0.638              1.839              2.130
 Vibration     9          0.638              1.839              2.128
 Vibration    10          0.650              1.800              1.904
 Vibration    11          0.663              1.763              1.730
 Vibration    12          0.671              1.737              1.626
 Vibration    13          0.684              1.700              1.499
 Vibration    14          0.692              1.676              1.424
 Vibration    15          0.739              1.543              1.098
 Vibration    16          0.741              1.536              1.083
 Vibration    17          0.747              1.519              1.052
 Vibration    18          0.804              1.373              0.812
 Vibration    19          0.838              1.291              0.706
 Vibration    20          0.856              1.249              0.657
 Vibration    21          0.866              1.226              0.632
 Vibration    22          0.895              1.161              0.565
 Vibration    23          0.906              1.138              0.543
 Vibration    24          0.935              1.078              0.489
 Vibration    25          0.952              1.043              0.459
 Vibration    26          0.957              1.034              0.452

 Optimization completed.
    -- Stationary point found.
 Normal termination of Gaussian 09 at Wed Dec 18 14:34:02 2024.
