 Gaussian 09, Revision E.01,
 Gaussian 09:  ES64L-G09RevE.01 30-Nov-2015

 -------------------------------------
 # opt freq b3lyp/6-31+g(d,p) em=gd3bj
 -------------------------------------

 ----------
 [No Title]
 ----------
 Symbolic Z-matrix:
 Charge =  0 Multiplicity = 1

 SCF Done:  E(RB3LYP) =  -802.577371789     A.U. after   16 cycles
 SCF Done:  E(RB3LYP) =  -802.577943477     A.U. after   12 cycles
 SCF Done:  E(RB3LYP) =  -802.577966867     A.U. after   11 cycles
 SCF Done:  E(RB3LYP) =  -802.577991632     A.U. after   11 cycles
 SCF Done:  E(RB3LYP) =  -802.577993198     A.U. after   10 cycles
 SCF Done:  E(RB3LYP) =  -802.577993169     A.U. after    9 cycles
 SCF Done:  E(RB3LYP) =  -802.577993366     A.U. after    9 cycles
 Optimization completed.
    -- Stationary point found.
 Normal termination of Gaussian 09 at Sun May 19 15:28:55 2024.

 ----------------------------------------------------------------------
 #N Geom=AllCheck Guess=TCheck SCRF=Check GenChk RB3LYP/6-31+G(d,p) Fre
 q
 ----------------------------------------------------------------------

 Structure from the checkpoint file:  "lw+b3lypSA.chk"
 ----------
 [No Title]
 ----------
 Charge =  0 Multiplicity = 1

                         Standard orientation:
 ---------------------------------------------------------------------
 Center     Atomic      Atomic             Coordinates (Angstroms)
 Number     Number       Type             X           Y           Z
 ---------------------------------------------------------------------
      1          6           0        2.277674   -0.117680    0.000733
      2          6           0        1.697850    1.175354    0.000311
      3          6           0        0.317825    1.338636    0.000031
      4          6           0       -0.532100    0.214700    0.000122
      5          6           0        0.040065   -1.058665    0.000380
      6          6           0        1.426114   -1.238724    0.000548
      7          8           0        3.646826   -0.129419    0.001057
      8          8           0        2.596219    2.197482    0.000328
      9          6           0        2.092652    3.526914   -0.000040
     10          8           0        1.791957   -2.567797    0.000520
     11          6           0        3.135704   -3.019919   -0.001255
     12          6           0       -1.972708    0.437489   -0.000115
     13          6           0       -2.950226   -0.491515   -0.000186
     14          6           0       -4.358631   -0.077339   -0.000429
     15          8           0       -5.197572   -1.152701   -0.000785
     16          8           0       -4.784019    1.066078   -0.000811
     17          1           0       -0.118145    2.329193   -0.000195
     18          1           0       -0.569301   -1.954212    0.000320
     19          1           0        3.987006   -1.028063    0.003670
     20          1           0        2.970142    4.173705    0.000019
     21          1           0        1.491596    3.724974   -0.896063
     22          1           0        1.491218    3.725326    0.895653
     23          1           0        3.076941   -4.109286   -0.001990
     24          1           0        3.673549   -2.713197   -0.908992
     25          1           0        3.675408   -2.714813    0.905985
     26          1           0       -2.294613    1.477557   -0.000255
     27          1           0       -2.754450   -1.557824   -0.000076
     28          1           0       -6.101951   -0.797999   -0.001143
 ---------------------------------------------------------------------

 SCF Done:  E(RB3LYP) =  -802.577993366     A.U. after    1 cycles

 The electronic state is 1-A.
 Alpha  occ. eigenvalues --  -19.20454 -19.20208 -19.20069 -19.19489 -19.14058
 Alpha  occ. eigenvalues --  -10.32195 -10.27304 -10.27249 -10.27195 -10.26537
 Alpha  occ. eigenvalues --  -10.25033 -10.21906 -10.21447 -10.20276 -10.20254
 Alpha  occ. eigenvalues --  -10.20013  -1.10448  -1.09694  -1.08272  -1.06744
 Alpha  occ. eigenvalues --   -1.01313  -0.87479  -0.81502  -0.78399  -0.76386
 Alpha  occ. eigenvalues --   -0.72042  -0.71159  -0.67976  -0.63577  -0.61853
 Alpha  occ. eigenvalues --   -0.57527  -0.55963  -0.54113  -0.52616  -0.51214
 Alpha  occ. eigenvalues --   -0.49946  -0.49769  -0.48067  -0.47886  -0.47033
 Alpha  occ. eigenvalues --   -0.45781  -0.44578  -0.43764  -0.42867  -0.42148
 Alpha  occ. eigenvalues --   -0.41185  -0.40401  -0.38802  -0.37955  -0.37401
 Alpha  occ. eigenvalues --   -0.36183  -0.34880  -0.34365  -0.34063  -0.32158
 Alpha  occ. eigenvalues --   -0.28103  -0.27834  -0.23460  -0.21829
 Alpha virt. eigenvalues --   -0.07314  -0.01431  -0.00806   0.00306   0.00812
 Alpha virt. eigenvalues --    0.01245   0.01446   0.01933   0.03066   0.03751
 Alpha virt. eigenvalues --    0.03781   0.04543   0.04871   0.05927   0.06364

 Mulliken charges:
               1
     1  C    0.001400
     2  C    0.276797
     3  C    0.047868
     4  C   -0.282211
     5  C   -0.381273
     6  C    0.237131
     7  O   -0.529679
     8  O   -0.361314
     9  C   -0.103356
    10  O   -0.374043
    11  C   -0.157842
    12  C    0.298424
    13  C   -0.644235
    14  C    0.807590
    15  O   -0.466997
    16  O   -0.519670
    17  H    0.122181
    18  H    0.122382
    19  H    0.356153
    20  H    0.151561
    21  H    0.146155
    22  H    0.146150
    23  H    0.164022
    24  H    0.144355
    25  H    0.143960
    26  H    0.150969
    27  H    0.131561
    28  H    0.371962
 Sum of Mulliken charges =  -0.00000

 Dipole moment (field-independent basis, Debye):
    X=              3.7223    Y=             -1.6696    Z=              0.0010  Tot=              4.0796
 Quadrupole moment (field-independent basis, Debye-Ang):
   XX=            -93.1925   YY=            -80.8078   ZZ=            -96.4947
   XY=             -3.3234   XZ=              0.0077   YZ=              0.0021

  Exact polarizability: 257.353   2.161 172.480   0.027  -0.002  85.923
 Approx polarizability: 369.912  11.804 261.605   0.046  -0.017 128.888

 ******    1 imaginary frequencies (negative Signs) ******

                      1                      2                      3
                      A                      A                      A
 Frequencies --   -125.3221                30.2499                62.3551
 Red. masses --      2.2532                 6.8805                 5.7078
 Frc consts  --      0.0208                 0.0037                 0.0131
 IR Inten    --      0.8550                 1.9271                 0.0962

                      4                      5                      6
                      A                      A                      A
 Frequencies --     71.1001                76.0288               100.6711
 Red. masses --      6.0001                 3.2366                 1.3991
 Frc consts  --      0.0179                 0.0110                 0.0084
 IR Inten    --      0.1459                 0.0240                75.5860

                      7                      8                      9
                      A                      A                      A
 Frequencies --    133.4582               149.1528               188.1991
 Red. masses --      4.3451                 3.8529                 4.2985
 Frc consts  --      0.0456                 0.0505                 0.0897
 IR Inten    --      4.5871                 0.4471                 4.3068

                     10                     11                     12
                      A                      A                      A
 Frequencies --    204.9219               216.8007               245.1635
 Red. masses --      5.7284                 2.2732                 2.1468
 Frc consts  --      0.1417                 0.0630                 0.0760
 IR Inten    --      0.6174                 1.3295                 0.2294

                     13                     14                     15
                      A                      A                      A
 Frequencies --    258.7970               295.5600               313.4490
 Red. masses --      4.7009                 1.8026                 1.0693
 Frc consts  --      0.1855                 0.0928                 0.0619
 IR Inten    --      0.2126                 0.6111                 8.9047

                     16                     17                     18
                      A                      A                      A
 Frequencies --    327.1333               341.2591               390.0712
 Red. masses --      4.6123                 5.6157                 4.5450
 Frc consts  --      0.2908                 0.3853                 0.4074
 IR Inten    --      4.3884                 0.8125                 0.6745

                     19                     20                     21
                      A                      A                      A
 Frequencies --    408.6129               469.6088               502.1684
 Red. masses --      4.3882                 6.1879                 6.1213
 Frc consts  --      0.4317                 0.8040                 0.9095
 IR Inten    --      2.2821                21.8884                 8.2907

                     22                     23                     24
                      A                      A                      A
 Frequencies --    540.3836               566.7250               573.1946
 Red. masses --      5.3235                 2.2006                 2.8590
 Frc consts  --      0.9159                 0.4164                 0.5534
 IR Inten    --      4.4476                16.6374                12.2234

                     25                     26                     27
                      A                      A                      A
 Frequencies --    583.6340               615.4074               660.9011
 Red. masses --      5.6004                 1.8319                 4.7593
 Frc consts  --      1.1240                 0.4088                 1.2248
 IR Inten    --     65.3402                78.0458                13.8833

                     28                     29                     30
                      A                      A                      A
 Frequencies --    715.1910               718.5408               747.1774
 Red. masses --      6.2268                 4.5478                 3.9640
 Frc consts  --      1.8765                 1.3834                 1.3039
 IR Inten    --      0.0062                 9.5553                17.3376

                     31                     32                     33
                      A                      A                      A
 Frequencies --    813.3246               836.1234               857.8632
 Red. masses --      5.8556                 1.4948                 1.4641
 Frc consts  --      2.2822                 0.6157                 0.6348
 IR Inten    --      6.8761                40.2038                12.5839

                     34                     35                     36
                      A                      A                      A
 Frequencies --    885.5534               926.7982               975.6015
 Red. masses --      2.0279                 5.1690                 3.9712
 Frc consts  --      0.9370                 2.6160                 2.2270
 IR Inten    --     10.6082                10.0605                16.2757

                     37                     38                     39
                      A                      A                      A
 Frequencies --   1000.1337              1022.4313              1090.8418
 Red. masses --      4.7601                 1.1658                 3.7224
 Frc consts  --      2.8053                 0.7181                 2.6097
 IR Inten    --     25.8869                30.4560                24.3089

                     40                     41                     42
                      A                      A                      A
 Frequencies --   1121.9967              1139.4274              1159.5610
 Red. masses --      2.6578                 2.4854                 1.2531
 Frc consts  --      1.9713                 1.9012                 0.9927
 IR Inten    --    204.3631               732.0271                 1.4545

                     43                     44                     45
                      A                      A                      A
 Frequencies --   1173.4938              1185.3948              1206.5311
 Red. masses --      1.2734                 1.9614                 1.4015
 Frc consts  --      1.0332                 1.6238                 1.2020
 IR Inten    --      1.1724                 0.3700                45.0122

                     46                     47                     48
                      A                      A                      A
 Frequencies --   1213.0933              1247.6190              1262.7313
 Red. masses --      1.4828                 2.4372                 1.8351
 Frc consts  --      1.2856                 2.2352                 1.7239
 IR Inten    --      0.5432               265.2363               128.3464

                     49                     50                     51
                      A                      A                      A
 Frequencies --   1271.7735              1288.0726              1337.3795
 Red. masses --      1.6336                 1.8602                 1.6115
 Frc consts  --      1.5568                 1.8184                 1.6982
 IR Inten    --     66.3115                36.6864               114.2255

                     52                     53                     54
                      A                      A                      A
 Frequencies --   1356.4576              1390.0784              1406.4020
 Red. masses --      2.0545                 3.3675                 5.2930
 Frc consts  --      2.2272                 3.8338                 6.1683
 IR Inten    --     54.9265               162.9825               214.1667

                     55                     56                     57
                      A                      A                      A
 Frequencies --   1455.6335              1484.9387              1490.8640
 Red. masses --      1.9875                 1.3332                 1.6066
 Frc consts  --      2.4812                 1.7321                 2.1039
 IR Inten    --     88.1147                33.3583                49.8145

                     58                     59                     60
                      A                      A                      A
 Frequencies --   1499.4053              1509.8484              1515.2462
 Red. masses --      1.0457                 1.0761                 1.0497
 Frc consts  --      1.3852                 1.4454                 1.4200
 IR Inten    --      8.8102                49.9148                 7.0295

                     61                     62                     63
                      A                      A                      A
 Frequencies --   1522.0036              1541.3207              1628.7853
 Red. masses --      1.0492                 4.4841                 6.3186
 Frc consts  --      1.4320                 6.2764                 9.8765
 IR Inten    --     38.1310               287.6787               188.5484

                     64                     65                     66
                      A                      A                      A
 Frequencies --   1643.6200              1689.4367              1780.0834
 Red. masses --      6.0499                 5.9044                 8.5839
 Frc consts  --      9.6295                 9.9291                16.0256
 IR Inten    --     68.5100               403.6774               336.5946

                     67                     68                     69
                      A                      A                      A
 Frequencies --   2994.2022              3019.8480              3061.5342
 Red. masses --      1.0368                 1.0342                 1.1076
 Frc consts  --      5.4767                 5.5568                 6.1166
 IR Inten    --     59.0957                53.2979                32.8599

                     70                     71                     72
                      A                      A                      A
 Frequencies --   3084.1127              3142.6060              3157.1717
 Red. masses --      1.1063                 1.0950                 1.1000
 Frc consts  --      6.1999                 6.3717                 6.4602
 IR Inten    --     36.3493                17.7004                21.8276

                     73                     74                     75
                      A                      A                      A
 Frequencies --   3169.4900              3214.5012              3225.1996
 Red. masses --      1.0892                 1.0910                 1.0897
 Frc consts  --      6.4466                 6.6422                 6.6787
 IR Inten    --      1.3597                 3.4125                 2.7494

                     76                     77                     78
                      A                      A                      A
 Frequencies --   3231.7223              3767.7775              3905.8168
 Red. masses --      1.0899                 1.0644                 1.0652
 Frc consts  --      6.7067                 8.9027                 9.5746
 IR Inten    --      3.2949               110.7783               186.5007

 - Thermochemistry -
 -------------------
 Temperature   298.150 Kelvin.  Pressure   1.00000 Atm.
 Atom     1 has atomic number  6 and mass  12.00000

 Molecular mass:   224.06847 amu.
 Principal axes and moments of inertia in atomic units:
                           1         2         3
     Eigenvalues --  2333.139737019.166499328.89636
           X            0.99999  -0.00495  -0.00012
           Y            0.00495   0.99999  -0.00005
           Z            0.00012   0.00005   1.00000
 This molecule is an asymmetric top.
 Rotational symmetry number  1.
 Warning -- assumption of classical behavior for rotation
           may cause significant error
 Rotational temperatures (Kelvin)      0.03712     0.01234     0.00928
 Rotational constants (GHZ):           0.77352     0.25712     0.19346
    1 imaginary frequencies ignored.
 Zero-point vibrational energy     570677.1 (Joules/Mol)
                                  136.39511 (Kcal/Mol)
 Warning -- explicit consideration of  25 degrees of freedom as
           vibrations may cause significant error
 Vibrational temperatures:     43.52    89.71   102.30   109.39   144.84
          (Kelvin)            192.02   214.60   270.78   294.84   311.93
                              352.74   372.35   425.24   450.98   470.67
                              491.00   561.22   587.90   675.66   722.51
                              777.49   815.39   824.70   839.72   885.43
                              950.89  1029.00  1033.82  1075.02  1170.19
                             1202.99  1234.27  1274.11  1333.45  1403.67
                             1438.97  1471.05  1569.48  1614.30  1639.38
                             1668.35  1688.39  1705.52  1735.93  1745.37
                             1795.04  1816.79  1829.80  1853.25  1924.19
                             1951.64  2000.01  2023.50  2094.33  2136.49
                             2145.02  2157.31  2172.33  2180.10  2189.82
                             2217.61  2343.46  2364.80  2430.72  2561.14
                             4307.98  4344.88  4404.86  4437.34  4521.50
                             4542.46  4560.18  4624.94  4640.34  4649.72
                             5420.98  5619.59

 Zero-point correction=                           0.217359 (Hartree/Particle)
 Thermal correction to Energy=                    0.232838
 Thermal correction to Enthalpy=                  0.233782
 Thermal correction to Gibbs Free Energy=         0.173603
 Sum of electronic and zero-point Energies=           -802.360634
 Sum of electronic and thermal Energies=              -802.345156
 Sum of electronic and thermal Enthalpies=            -802.344212
 Sum of electronic and thermal Free Energies=         -802.404390

                     E (Thermal)             CV                S
                      KCal/Mol        Cal/Mol-Kelvin    Cal/Mol-Kelvin
 Total                  146.108             57.005            126.657
 Electronic               0.000              0.000              0.000
 Translational            0.889              2.981             42.123
 Rotational               0.889              2.981             33.390
 Vibrational            144.330             51.043             51.144
 Vibration     1          0.594              1.984              5.813
 Vibration     2          0.597              1.972              4.381
 Vibration     3          0.598              1.968              4.123
 Vibration     4          0.599              1.965              3.991
 Vibration     5          0.604              1.949              3.441
 Vibration     6          0.613              1.920              2.896
 Vibration     7          0.618              1.904              2.683
 Vibration     8          0.633              1.856              2.245
 Vibration     9          0.640              1.833              2.088
 Vibration    10          0.646              1.815              1.986
 Vibration    11          0.660              1.771              1.765
 Vibration    12          0.668              1.748              1.670
 Vibration    13          0.690              1.682              1.442
 Vibration    14          0.701              1.648              1.344
 Vibration    15          0.711              1.621              1.274
 Vibration    16          0.721              1.593              1.206
 Vibration    17          0.758              1.491              1.000
 Vibration    18          0.773              1.452              0.932
 Vibration    19          0.827              1.317              0.739
 Vibration    20          0.858              1.245              0.653
 Vibration    21          0.895              1.161              0.564
 Vibration    22          0.923              1.103              0.511
 Vibration    23          0.929              1.089              0.498
 Vibration    24          0.941              1.067              0.479
 Vibration    25          0.975              0.999              0.424

 Normal termination of Gaussian 09 at Sun May 19 15:35:01 2024.
