 Gaussian 09, Revision E.01,
 Gaussian 09:  ES64L-G09RevE.01 30-Nov-2015

 -------------------------------------
 # opt freq b3lyp/6-31+g(d,p) em=gd3bj
 -------------------------------------

 ----------
 [No Title]
 ----------
 Symbolic Z-matrix:
 Charge =  1 Multiplicity = 1

 SCF Done:  E(RB3LYP) =  -802.944021348     A.U. after   16 cycles
 SCF Done:  E(RB3LYP) =  -802.944572768     A.U. after   13 cycles
 SCF Done:  E(RB3LYP) =  -802.944609421     A.U. after   11 cycles
 SCF Done:  E(RB3LYP) =  -802.944617967     A.U. after   11 cycles
 SCF Done:  E(RB3LYP) =  -802.944621890     A.U. after   10 cycles
 SCF Done:  E(RB3LYP) =  -802.944627119     A.U. after   11 cycles
 SCF Done:  E(RB3LYP) =  -802.944630536     A.U. after   11 cycles
 SCF Done:  E(RB3LYP) =  -802.944630850     A.U. after    9 cycles
 Optimization completed.
    -- Stationary point found.
 Normal termination of Gaussian 09 at Sun May 19 23:04:09 2024.

 ----------------------------------------------------------------------
 #N Geom=AllCheck Guess=TCheck SCRF=Check GenChk RB3LYP/6-31+G(d,p) Fre
 q
 ----------------------------------------------------------------------

 Structure from the checkpoint file:  "lw+b3lypSAYang.chk"
 ----------
 [No Title]
 ----------
 Charge =  1 Multiplicity = 1

                         Standard orientation:
 ---------------------------------------------------------------------
 Center     Atomic      Atomic             Coordinates (Angstroms)
 Number     Number       Type             X           Y           Z
 ---------------------------------------------------------------------
      1          6           0        2.401071    0.206851   -0.001201
      2          6           0        1.933336   -1.132712    0.006875
      3          6           0        0.565619   -1.355179    0.011752
      4          6           0       -0.356805   -0.269770    0.009030
      5          6           0        0.125512    1.069964   -0.002319
      6          6           0        1.484555    1.295979   -0.005586
      7          8           0        3.708339    0.430419   -0.005605
      8          8           0        2.895518   -2.071245    0.009018
      9          6           0        2.504197   -3.447506    0.017789
     10          8           0        2.112173    2.497845   -0.014724
     11          6           0        1.319324    3.692412   -0.019170
     12          6           0       -1.733551   -0.579696    0.013415
     13          6           0       -2.800695    0.316042    0.017925
     14          6           0       -4.115438   -0.118789   -0.001364
     15          8           0       -5.084798    0.779624    0.112580
     16          8           0       -4.410875   -1.407469   -0.142142
     17          1           0        0.178817   -2.366305    0.018122
     18          1           0       -0.565300    1.901470   -0.007860
     19          1           0        3.868581    1.391742   -0.011751
     20          1           0        3.434117   -4.013348    0.018135
     21          1           0        1.928390   -3.682026    0.920061
     22          1           0        1.922993   -3.692029   -0.878342
     23          1           0        2.029867    4.516911   -0.025327
     24          1           0        0.695064    3.732601   -0.917746
     25          1           0        0.699470    3.742155    0.881976
     26          1           0       -1.986181   -1.637348    0.011768
     27          1           0       -2.664220    1.389297    0.038047
     28          1           0       -5.962521    0.462863   -0.154587
     29          1           0       -5.304698   -1.644941    0.151611
 ---------------------------------------------------------------------

 SCF Done:  E(RB3LYP) =  -802.944630850     A.U. after    1 cycles

 The electronic state is 1-A.
 Alpha  occ. eigenvalues --  -19.38604 -19.38492 -19.33158 -19.32729 -19.30734
 Alpha  occ. eigenvalues --  -10.51007 -10.40998 -10.39741 -10.39093 -10.37767
 Alpha  occ. eigenvalues --  -10.36403 -10.35227 -10.35098 -10.34882 -10.34029
 Alpha  occ. eigenvalues --  -10.33812  -1.30758  -1.23187  -1.23171  -1.20259
 Alpha  occ. eigenvalues --   -1.18932  -1.00858  -0.96932  -0.91456  -0.89997
 Alpha  occ. eigenvalues --   -0.85266  -0.84520  -0.81333  -0.79335  -0.77987
 Alpha  occ. eigenvalues --   -0.73917  -0.71356  -0.70241  -0.67741  -0.65599
 Alpha  occ. eigenvalues --   -0.64209  -0.63569  -0.62978  -0.61157  -0.60677
 Alpha  occ. eigenvalues --   -0.60143  -0.58717  -0.57859  -0.55665  -0.55227
 Alpha  occ. eigenvalues --   -0.55068  -0.54541  -0.53376  -0.52741  -0.52206
 Alpha  occ. eigenvalues --   -0.50592  -0.49565  -0.47920  -0.47900  -0.46380
 Alpha  occ. eigenvalues --   -0.45683  -0.41970  -0.36560  -0.34611
 Alpha virt. eigenvalues --   -0.24515  -0.15887  -0.14063  -0.12484  -0.10463
 Alpha virt. eigenvalues --   -0.10185  -0.10073  -0.09163  -0.07663  -0.07209
 Alpha virt. eigenvalues --   -0.06697  -0.06437  -0.05796  -0.04986  -0.04868

 Mulliken charges:
               1
     1  C   -0.152759
     2  C    0.619299
     3  C   -0.061621
     4  C   -0.396050
     5  C   -0.203508
     6  C    0.349957
     7  O   -0.459729
     8  O   -0.354734
     9  C   -0.097516
    10  O   -0.448180
    11  C   -0.102129
    12  C    0.143603
    13  C   -0.666264
    14  C    0.922995
    15  O   -0.417044
    16  O   -0.461922
    17  H    0.141874
    18  H    0.126436
    19  H    0.426796
    20  H    0.179154
    21  H    0.155046
    22  H    0.155316
    23  H    0.178574
    24  H    0.161541
    25  H    0.161597
    26  H    0.166945
    27  H    0.156217
    28  H    0.387212
    29  H    0.388893
 Sum of Mulliken charges =   1.00000

 Dipole moment (field-independent basis, Debye):
    X=             -9.6299    Y=             -0.0507    Z=              0.0458  Tot=              9.6302
 Quadrupole moment (field-independent basis, Debye-Ang):
   XX=            -12.3276   YY=            -56.3994   ZZ=            -94.3384
   XY=             11.0298   XZ=              0.1512   YZ=             -1.4892

  Exact polarizability: 339.503   7.344 168.047  -0.219   0.151  81.536
 Approx polarizability: 679.116  30.122 240.258  -0.866   0.876 122.880

                      1                      2                      3
                      A                      A                      A
 Frequencies --     48.2232                58.6828                66.6407
 Red. masses --      6.2916                 5.3543                 3.2597
 Frc consts  --      0.0086                 0.0109                 0.0085
 IR Inten    --      0.6267                 0.7443                 8.5592

                      4                      5                      6
                      A                      A                      A
 Frequencies --     72.9965               108.9582               142.9623
 Red. masses --      5.0965                 3.6714                 5.6948
 Frc consts  --      0.0160                 0.0257                 0.0686
 IR Inten    --      0.6081                 0.1023                 0.9573

                      7                      8                      9
                      A                      A                      A
 Frequencies --    171.7088               180.0694               192.9521
 Red. masses --      3.8604                 3.0517                 1.4800
 Frc consts  --      0.0671                 0.0583                 0.0325
 IR Inten    --      3.1512                11.9856                 5.3938

                     10                     11                     12
                      A                      A                      A
 Frequencies --    197.9515               237.7300               246.6532
 Red. masses --      3.2989                 1.2532                 4.9575
 Frc consts  --      0.0762                 0.0417                 0.1777
 IR Inten    --     10.3358                10.1325                 3.2013

                     13                     14                     15
                      A                      A                      A
 Frequencies --    262.1581               289.8972               308.8703
 Red. masses --      1.7840                 1.5551                 5.3221
 Frc consts  --      0.0722                 0.0770                 0.2991
 IR Inten    --     60.5132               140.7993                27.5581

                     16                     17                     18
                      A                      A                      A
 Frequencies --    339.1733               360.6353               376.8173
 Red. masses --      2.3983                 4.4006                 4.4272
 Frc consts  --      0.1626                 0.3372                 0.3704
 IR Inten    --     74.9645                 2.3079                 0.5327

                     19                     20                     21
                      A                      A                      A
 Frequencies --    402.2184               413.9083               499.1933
 Red. masses --      1.2152                 3.0063                 6.1412
 Frc consts  --      0.1158                 0.3035                 0.9017
 IR Inten    --    235.9257                20.3084                 8.6976

                     22                     23                     24
                      A                      A                      A
 Frequencies --    529.0007               530.4405               556.6856
 Red. masses --      6.6013                 4.9736                 2.5516
 Frc consts  --      1.0884                 0.8245                 0.4659
 IR Inten    --      0.8926                25.5071                21.2054

                     25                     26                     27
                      A                      A                      A
 Frequencies --    579.8094               584.5241               612.6518
 Red. masses --      3.7186                 3.7184                 1.3514
 Frc consts  --      0.7365                 0.7485                 0.2988
 IR Inten    --     11.8905                 6.6970                80.9076

                     28                     29                     30
                      A                      A                      A
 Frequencies --    670.3624               683.8190               712.4902
 Red. masses --      4.4798                 4.8394                 5.0662
 Frc consts  --      1.1861                 1.3333                 1.5153
 IR Inten    --      1.0531                 8.0962                53.5894

                     31                     32                     33
                      A                      A                      A
 Frequencies --    727.4898               833.5445               839.6699
 Red. masses --      9.7880                 1.5416                 5.6432
 Frc consts  --      3.0521                 0.6311                 2.3442
 IR Inten    --      0.0688                 5.1083                 2.6254

                     34                     35                     36
                      A                      A                      A
 Frequencies --    850.3078               867.5229               932.7389
 Red. masses --      1.3483                 1.5175                 5.4083
 Frc consts  --      0.5744                 0.6729                 2.7723
 IR Inten    --     38.7941                22.3137                 4.6126

                     37                     38                     39
                      A                      A                      A
 Frequencies --    983.5763               993.5227              1015.5982
 Red. masses --      4.8251                 1.3365                 4.3779
 Frc consts  --      2.7503                 0.7773                 2.6605
 IR Inten    --    214.4105                23.6335                25.6997

                     40                     41                     42
                      A                      A                      A
 Frequencies --   1062.4124              1146.1269              1148.2868
 Red. masses --      4.4665                 1.5397                 1.8474
 Frc consts  --      2.9704                 1.1917                 1.4352
 IR Inten    --      2.4843               156.6824               393.4033

                     43                     44                     45
                      A                      A                      A
 Frequencies --   1163.1195              1171.4146              1174.1112
 Red. masses --      1.5365                 1.2685                 1.2624
 Frc consts  --      1.2247                 1.0256                 1.0253
 IR Inten    --   1013.6905                 1.3724                 0.8354

                     46                     47                     48
                      A                      A                      A
 Frequencies --   1205.8252              1209.3654              1230.5597
 Red. masses --      1.4314                 1.3613                 1.7816
 Frc consts  --      1.2262                 1.1730                 1.5895
 IR Inten    --      5.3150                 4.5923                34.8364

                     49                     50                     51
                      A                      A                      A
 Frequencies --   1263.1517              1284.2231              1305.2398
 Red. masses --      1.9303                 1.7519                 1.6572
 Frc consts  --      1.8146                 1.7023                 1.6635
 IR Inten    --    353.1438                28.5504               270.4322

                     52                     53                     54
                      A                      A                      A
 Frequencies --   1330.7181              1350.7889              1392.6336
 Red. masses --      1.5567                 3.4566                 2.9598
 Frc consts  --      1.6242                 3.7160                 3.3821
 IR Inten    --      1.4760                66.6835               407.4639

                     55                     56                     57
                      A                      A                      A
 Frequencies --   1424.0937              1463.6062              1476.1852
 Red. masses --      4.4783                 3.8707                 1.2849
 Frc consts  --      5.3510                 4.8852                 1.6497
 IR Inten    --    785.8699               327.6896                22.5600

                     58                     59                     60
                      A                      A                      A
 Frequencies --   1489.1552              1498.5662              1500.9856
 Red. masses --      1.3778                 1.0451                 1.0457
 Frc consts  --      1.8001                 1.3828                 1.3880
 IR Inten    --     56.8657                13.2757                13.4829

                     61                     62                     63
                      A                      A                      A
 Frequencies --   1502.6279              1503.0592              1521.1672
 Red. masses --      1.0542                 1.0821                 4.0529
 Frc consts  --      1.4023                 1.4404                 5.5255
 IR Inten    --     45.0193               117.6951               386.2161

                     64                     65                     66
                      A                      A                      A
 Frequencies --   1537.9353              1605.8617              1622.2046
 Red. masses --      4.5301                 4.5064                 5.4217
 Frc consts  --      6.3130                 6.8469                 8.4061
 IR Inten    --    560.3213                71.5997               426.8974

                     67                     68                     69
                      A                      A                      A
 Frequencies --   1635.9185              1672.6409              3033.5551
 Red. masses --      4.3569                 5.2886                 1.0340
 Frc consts  --      6.8699                 8.7176                 5.6063
 IR Inten    --    543.2237               805.3606                29.9836

                     70                     71                     72
                      A                      A                      A
 Frequencies --   3042.6242              3106.2681              3119.1356
 Red. masses --      1.0330                 1.1076                 1.1082
 Frc consts  --      5.6345                 6.2966                 6.3525
 IR Inten    --     22.8381                24.1314                18.9578

                     73                     74                     75
                      A                      A                      A
 Frequencies --   3183.1272              3186.3092              3187.9889
 Red. masses --      1.1010                 1.1024                 1.0898
 Frc consts  --      6.5730                 6.5940                 6.5257
 IR Inten    --      5.9594                 4.7067                 0.8750

                     76                     77                     78
                      A                      A                      A
 Frequencies --   3234.8414              3241.4521              3252.9587
 Red. masses --      1.0906                 1.0909                 1.0894
 Frc consts  --      6.7240                 6.7535                 6.7922
 IR Inten    --      1.6240                 2.5439                 0.2690

                     79                     80                     81
                      A                      A                      A
 Frequencies --   3711.9308              3773.5959              3782.9701
 Red. masses --      1.0650                 1.0678                 1.0661
 Frc consts  --      8.6458                 8.9590                 8.9887
 IR Inten    --    350.4053                67.3318               614.2901

 - Thermochemistry -
 -------------------
 Temperature   298.150 Kelvin.  Pressure   1.00000 Atm.
 Atom     1 has atomic number  6 and mass  12.00000

 Molecular mass:   225.07630 amu.
 Principal axes and moments of inertia in atomic units:
                           1         2         3
     Eigenvalues --  2543.163386588.204099103.78486
           X            0.99999  -0.00366   0.00002
           Y            0.00366   0.99999  -0.00115
           Z           -0.00001   0.00115   1.00000
 This molecule is an asymmetric top.
 Rotational symmetry number  1.
 Warning -- assumption of classical behavior for rotation
           may cause significant error
 Rotational temperatures (Kelvin)      0.03406     0.01315     0.00951
 Rotational constants (GHZ):           0.70964     0.27394     0.19824
 Zero-point vibrational energy     605495.2 (Joules/Mol)
                                  144.71683 (Kcal/Mol)
 Warning -- explicit consideration of  27 degrees of freedom as
           vibrations may cause significant error
 Vibrational temperatures:     69.38    84.43    95.88   105.03   156.77
          (Kelvin)            205.69   247.05   259.08   277.61   284.81
                              342.04   354.88   377.19   417.10   444.39
                              487.99   518.87   542.16   578.70   595.52
                              718.23   761.11   763.18   800.95   834.22
                              841.00   881.47   964.50   983.86  1025.11
                             1046.69  1199.28  1208.10  1223.40  1248.17
                             1342.00  1415.15  1429.46  1461.22  1528.57
                             1649.02  1652.13  1673.47  1685.40  1689.28
                             1734.91  1740.00  1770.50  1817.39  1847.71
                             1877.95  1914.60  1943.48  2003.69  2048.95
                             2105.80  2123.90  2142.56  2156.10  2159.58
                             2161.94  2162.56  2188.62  2212.74  2310.47
                             2333.99  2353.72  2406.55  4364.60  4377.65
                             4469.22  4487.73  4579.80  4584.38  4586.80
                             4654.21  4663.72  4680.28  5340.63  5429.36
                             5442.84

 Zero-point correction=                           0.230621 (Hartree/Particle)
 Thermal correction to Energy=                    0.246857
 Thermal correction to Enthalpy=                  0.247801
 Thermal correction to Gibbs Free Energy=         0.186735
 Sum of electronic and zero-point Energies=           -802.714010
 Sum of electronic and thermal Energies=              -802.697774
 Sum of electronic and thermal Enthalpies=            -802.696830
 Sum of electronic and thermal Free Energies=         -802.757896

                     E (Thermal)             CV                S
                      KCal/Mol        Cal/Mol-Kelvin    Cal/Mol-Kelvin
 Total                  154.905             60.337            128.525
 Electronic               0.000              0.000              0.000
 Translational            0.889              2.981             42.136
 Rotational               0.889              2.981             33.389
 Vibrational            153.127             54.375             53.000
 Vibration     1          0.595              1.978              4.889
 Vibration     2          0.596              1.974              4.501
 Vibration     3          0.598              1.970              4.250
 Vibration     4          0.599              1.967              4.071
 Vibration     5          0.606              1.942              3.287
 Vibration     6          0.616              1.910              2.764
 Vibration     7          0.626              1.877              2.417
 Vibration     8          0.629              1.867              2.328
 Vibration     9          0.635              1.850              2.199
 Vibration    10          0.637              1.843              2.152
 Vibration    11          0.656              1.783              1.820
 Vibration    12          0.661              1.768              1.754
 Vibration    13          0.669              1.742              1.647
 Vibration    14          0.686              1.693              1.475
 Vibration    15          0.698              1.657              1.368
 Vibration    16          0.719              1.597              1.216
 Vibration    17          0.735              1.553              1.119
 Vibration    18          0.747              1.520              1.052
 Vibration    19          0.768              1.465              0.955
 Vibration    20          0.777              1.440              0.913
 Vibration    21          0.855              1.252              0.660
 Vibration    22          0.884              1.186              0.589
 Vibration    23          0.885              1.183              0.586
 Vibration    24          0.912              1.125              0.530
 Vibration    25          0.936              1.075              0.486
 Vibration    26          0.941              1.065              0.477
 Vibration    27          0.972              1.005              0.428

 Optimization completed.
    -- Stationary point found.
 Normal termination of Gaussian 09 at Sun May 19 23:10:27 2024.
