 Gaussian 09, Revision E.01,
 Gaussian 09:  ES64L-G09RevE.01 30-Nov-2015

 -------------------------------------------------------
 # opt freq b3pw91/6-31+g(d,p) EmpiricalDispersion=GD3BJ
 -------------------------------------------------------

 ----------
 [No Title]
 ----------
 Symbolic Z-matrix:
 Charge =  0 Multiplicity = 1

 SCF Done:  E(RB3PW91) =  -802.282249577     A.U. after   16 cycles
 SCF Done:  E(RB3PW91) =  -802.282298050     A.U. after   12 cycles
 SCF Done:  E(RB3PW91) =  -802.282308109     A.U. after   10 cycles
 SCF Done:  E(RB3PW91) =  -802.282308212     A.U. after    9 cycles
 Optimization completed.
    -- Stationary point found.
 Normal termination of Gaussian 09 at Tue Dec 17 22:54:23 2024.

 ----------------------------------------------------------------------
 #N Geom=AllCheck Guess=TCheck SCRF=Check GenChk RB3PW91/6-31+G(d,p) Fr
 eq
 ----------------------------------------------------------------------

 Structure from the checkpoint file:  "B3PW91D3BJSA.chk"
 ----------
 [No Title]
 ----------
 Charge =  0 Multiplicity = 1

                         Standard orientation:
 ---------------------------------------------------------------------
 Center     Atomic      Atomic             Coordinates (Angstroms)
 Number     Number       Type             X           Y           Z
 ---------------------------------------------------------------------
      1          6           0       -2.385429    0.213185   -0.000019
      2          6           0       -1.914563   -1.107239   -0.000014
      3          6           0       -0.539371   -1.339779    0.000014
      4          6           0        0.377618   -0.275866    0.000036
      5          6           0       -0.098699    1.046238    0.000035
      6          6           0       -1.465736    1.275537    0.000007
      7          8           0       -3.713456    0.453816   -0.000048
      8          8           0       -2.868715   -2.068766   -0.000039
      9          6           0       -2.440829   -3.417220    0.000003
     10          8           0       -2.069422    2.501664    0.000006
     11          6           0       -1.239872    3.650265    0.000027
     12          6           0        1.793970   -0.594525    0.000056
     13          6           0        2.834277    0.263276    0.000041
     14          6           0        4.204810   -0.252714    0.000082
     15          8           0        5.118143    0.753091   -0.000118
     16          8           0        4.541677   -1.423366   -0.000010
     17          1           0       -0.158194   -2.354186    0.000014
     18          1           0        0.597089    1.875293    0.000062
     19          1           0       -3.830359    1.415847   -0.000031
     20          1           0       -3.351056   -4.017296    0.000004
     21          1           0       -1.851577   -3.649618   -0.896009
     22          1           0       -1.851604   -3.649571    0.896045
     23          1           0       -0.609246    3.678765    0.896508
     24          1           0       -0.609206    3.678770   -0.896425
     25          1           0       -1.912685    4.507925    0.000015
     26          1           0        2.046892   -1.654221    0.000091
     27          1           0        2.717471    1.341732    0.000001
     28          1           0        5.989620    0.328094   -0.000203
 ---------------------------------------------------------------------

 SCF Done:  E(RB3PW91) =  -802.282308212     A.U. after    1 cycles

 The electronic state is 1-A.
 Alpha  occ. eigenvalues --  -19.20568 -19.19134 -19.18797 -19.18735 -19.12921
 Alpha  occ. eigenvalues --  -10.30677 -10.25646 -10.25253 -10.25171 -10.24890
 Alpha  occ. eigenvalues --  -10.23528 -10.20732 -10.20475 -10.19472 -10.19336
 Alpha  occ. eigenvalues --  -10.19017  -1.11148  -1.11147  -1.09199  -1.07285
 Alpha  occ. eigenvalues --   -1.01758  -0.88056  -0.81938  -0.78285  -0.76917
 Alpha  occ. eigenvalues --   -0.73216  -0.71299  -0.68031  -0.62703  -0.61973
 Alpha  occ. eigenvalues --   -0.58260  -0.56124  -0.55146  -0.52167  -0.51723
 Alpha  occ. eigenvalues --   -0.50153  -0.49809  -0.48282  -0.48255  -0.47512
 Alpha  occ. eigenvalues --   -0.46184  -0.44983  -0.43934  -0.43203  -0.42183
 Alpha  occ. eigenvalues --   -0.41851  -0.40040  -0.38533  -0.37403  -0.37170
 Alpha  occ. eigenvalues --   -0.36516  -0.36511  -0.34675  -0.34185  -0.32388
 Alpha  occ. eigenvalues --   -0.28264  -0.28167  -0.24349  -0.21618
 Alpha virt. eigenvalues --   -0.07453  -0.00424   0.00488   0.00701   0.01428
 Alpha virt. eigenvalues --    0.01515   0.02034   0.03465   0.04181   0.04892
 Alpha virt. eigenvalues --    0.05022   0.05970   0.06196   0.07088   0.07415

 Mulliken charges:
               1
     1  C   -0.357310
     2  C    0.352698
     3  C    0.142456
     4  C   -0.470498
     5  C   -0.091644
     6  C    0.221406
     7  O   -0.513545
     8  O   -0.315225
     9  C   -0.145989
    10  O   -0.408921
    11  C   -0.153468
    12  C    0.112174
    13  C   -0.543534
    14  C    0.757448
    15  O   -0.449617
    16  O   -0.502830
    17  H    0.147705
    18  H    0.133920
    19  H    0.407380
    20  H    0.168011
    21  H    0.158528
    22  H    0.158528
    23  H    0.164723
    24  H    0.164723
    25  H    0.167164
    26  H    0.173586
    27  H    0.147317
    28  H    0.374816
 Sum of Mulliken charges =  -0.00000

 Dipole moment (field-independent basis, Debye):
    X=             -1.1970    Y=              2.5370    Z=              0.0001  Tot=              2.8052
 Quadrupole moment (field-independent basis, Debye-Ang):
   XX=           -103.0377   YY=            -73.9427   ZZ=            -95.9326
   XY=              4.9579   XZ=             -0.0006   YZ=             -0.0000

  Exact polarizability: 252.881   2.512 173.768   0.018  -0.012  84.338
 Approx polarizability: 384.528   4.506 256.247   0.002   0.000 124.525

                      1                      2                      3
                      A                      A                      A
 Frequencies --     31.6417                58.6316                65.5789
 Red. masses --      6.6147                 3.0182                 7.0758
 Frc consts  --      0.0039                 0.0061                 0.0179
 IR Inten    --      0.3740                 8.5798                 0.0521

                      4                      5                      6
                      A                      A                      A
 Frequencies --     69.5997                93.7913               136.3228
 Red. masses --      5.7018                 3.5720                 3.7432
 Frc consts  --      0.0163                 0.0185                 0.0410
 IR Inten    --      0.4145                 0.0869                 0.0252

                      7                      8                      9
                      A                      A                      A
 Frequencies --    159.6474               175.7612               198.2813
 Red. masses --      4.3398                 4.2724                 4.6071
 Frc consts  --      0.0652                 0.0778                 0.1067
 IR Inten    --      4.0547                 3.9819                 1.7064

                     10                     11                     12
                      A                      A                      A
 Frequencies --    205.5306               239.2377               248.2058
 Red. masses --      1.4416                 1.3793                 5.3304
 Frc consts  --      0.0359                 0.0465                 0.1935
 IR Inten    --      0.0182                 0.1287                 1.1161

                     13                     14                     15
                      A                      A                      A
 Frequencies --    275.3438               297.2302               297.2679
 Red. masses --      2.1839                 2.0255                 6.0430
 Frc consts  --      0.0976                 0.1054                 0.3146
 IR Inten    --      0.2003                 0.3304                 5.9864

                     16                     17                     18
                      A                      A                      A
 Frequencies --    365.5208               377.4811               391.2896
 Red. masses --      4.2412                 4.5236                 4.2108
 Frc consts  --      0.3339                 0.3798                 0.3799
 IR Inten    --      0.7021                 1.1445                 1.1976

                     19                     20                     21
                      A                      A                      A
 Frequencies --    489.1059               499.8112               509.6283
 Red. masses --      1.1178                 6.0832                 5.1417
 Frc consts  --      0.1576                 0.8954                 0.7868
 IR Inten    --     97.7788                 9.0888                25.5477

                     22                     23                     24
                      A                      A                      A
 Frequencies --    539.7117               568.0815               584.3964
 Red. masses --      6.8296                 2.0252                 4.0176
 Frc consts  --      1.1721                 0.3851                 0.8084
 IR Inten    --      1.7277                19.7995                 3.3192

                     25                     26                     27
                      A                      A                      A
 Frequencies --    602.6178               615.5562               670.4875
 Red. masses --      5.2761                 1.6865                 4.1398
 Frc consts  --      1.1289                 0.3765                 1.0965
 IR Inten    --     80.7356                82.1111                10.5861

                     28                     29                     30
                      A                      A                      A
 Frequencies --    712.9626               728.8230               750.0463
 Red. masses --      4.8673                 8.0900                 3.6051
 Frc consts  --      1.4577                 2.5319                 1.1949
 IR Inten    --      6.7658                 0.0805                16.5662

                     31                     32                     33
                      A                      A                      A
 Frequencies --    823.8434               832.9186               839.1108
 Red. masses --      1.4360                 5.5016                 1.5002
 Frc consts  --      0.5742                 2.2487                 0.6223
 IR Inten    --     28.0755                11.1444                30.0758

                     34                     35                     36
                      A                      A                      A
 Frequencies --    877.2593               948.7091               983.5166
 Red. masses --      2.0164                 5.1215                 3.6713
 Frc consts  --      0.9143                 2.7159                 2.0923
 IR Inten    --     12.3509                14.4458                18.4298

                     37                     38                     39
                      A                      A                      A
 Frequencies --   1017.1416              1023.9927              1097.1993
 Red. masses --      1.1731                 3.9857                 5.0024
 Frc consts  --      0.7151                 2.4623                 3.5481
 IR Inten    --     30.8229                 3.0103                 2.5498

                     40                     41                     42
                      A                      A                      A
 Frequencies --   1150.2792              1170.2077              1171.6861
 Red. masses --      2.3302                 3.2492                 1.2777
 Frc consts  --      1.8166                 2.6216                 1.0335
 IR Inten    --    692.9634               241.3236                 0.9187

                     43                     44                     45
                      A                      A                      A
 Frequencies --   1174.5845              1196.9397              1210.2911
 Red. masses --      1.2716                 1.5778                 1.3812
 Frc consts  --      1.0337                 1.3318                 1.1921
 IR Inten    --      0.5180                41.3448                 5.6367

                     46                     47                     48
                      A                      A                      A
 Frequencies --   1219.5533              1260.9773              1264.8367
 Red. masses --      1.5504                 1.7747                 1.5263
 Frc consts  --      1.3586                 1.6626                 1.4386
 IR Inten    --     25.3892               202.7279               124.4499

                     49                     50                     51
                      A                      A                      A
 Frequencies --   1306.0243              1308.9687              1340.1220
 Red. masses --      1.8871                 2.4839                 1.4573
 Frc consts  --      1.8964                 2.5075                 1.5420
 IR Inten    --    155.1462                82.1072                16.8973

                     52                     53                     54
                      A                      A                      A
 Frequencies --   1370.4802              1411.4212              1440.9098
 Red. masses --      2.7249                 4.1425                 3.2202
 Frc consts  --      3.0154                 4.8621                 3.9392
 IR Inten    --    301.3648                71.8051               111.5153

                     55                     56                     57
                      A                      A                      A
 Frequencies --   1467.4250              1487.5721              1492.2388
 Red. masses --      1.4365                 1.3597                 1.0436
 Frc consts  --      1.8225                 1.7728                 1.3692
 IR Inten    --     62.3563                 8.5165                10.3265

                     58                     59                     60
                      A                      A                      A
 Frequencies --   1495.1555              1505.1749              1506.7755
 Red. masses --      1.0442                 1.6451                 1.4185
 Frc consts  --      1.3754                 2.1960                 1.8974
 IR Inten    --     10.1274                49.2228               144.8656

                     61                     62                     63
                      A                      A                      A
 Frequencies --   1507.5681              1570.5830              1650.2864
 Red. masses --      1.0862                 5.1816                 6.4310
 Frc consts  --      1.4546                 7.5307                10.3193
 IR Inten    --     58.8216               356.6391               125.3785

                     64                     65                     66
                      A                      A                      A
 Frequencies --   1665.5076              1697.8842              1799.5379
 Red. masses --      6.3487                 6.3710                 8.9385
 Frc consts  --     10.3759                10.8212                17.0543
 IR Inten    --    219.1557               351.6127               350.9017

                     67                     68                     69
                      A                      A                      A
 Frequencies --   3026.3076              3035.4188              3097.2285
 Red. masses --      1.0343                 1.0334                 1.1062
 Frc consts  --      5.5812                 5.6098                 6.2521
 IR Inten    --     54.4567                42.9354                34.0885

                     70                     71                     72
                      A                      A                      A
 Frequencies --   3110.1046              3172.5613              3176.3061
 Red. masses --      1.1067                 1.1002                 1.1014
 Frc consts  --      6.3074                 6.5245                 6.5468
 IR Inten    --     27.8917                19.6971                17.2551

                     73                     74                     75
                      A                      A                      A
 Frequencies --   3177.5020              3224.1087              3234.6733
 Red. masses --      1.0895                 1.0907                 1.0901
 Frc consts  --      6.4809                 6.6801                 6.7202
 IR Inten    --      0.3703                 5.8495                 2.8538

                     76                     77                     78
                      A                      A                      A
 Frequencies --   3246.9208              3789.3444              3799.1447
 Red. masses --      1.0898                 1.0650                 1.0643
 Frc consts  --      6.7692                 9.0101                 9.0506
 IR Inten    --      3.4400               162.7569               111.0916

 - Thermochemistry -
 -------------------
 Temperature   298.150 Kelvin.  Pressure   1.00000 Atm.
 Atom     1 has atomic number  6 and mass  12.00000

 Molecular mass:   224.06847 amu.
 Principal axes and moments of inertia in atomic units:
                           1         2         3
     Eigenvalues --  2497.466086567.506769041.84537
           X            0.99994   0.01056  -0.00000
           Y           -0.01056   0.99994  -0.00000
           Z           -0.00000   0.00000   1.00000
 This molecule is an asymmetric top.
 Rotational symmetry number  1.
 Warning -- assumption of classical behavior for rotation
           may cause significant error
 Rotational temperatures (Kelvin)      0.03468     0.01319     0.00958
 Rotational constants (GHZ):           0.72263     0.27480     0.19960
 Zero-point vibrational energy     576204.6 (Joules/Mol)
                                  137.71622 (Kcal/Mol)
 Warning -- explicit consideration of  26 degrees of freedom as
           vibrations may cause significant error
 Vibrational temperatures:     45.53    84.36    94.35   100.14   134.94
          (Kelvin)            196.14   229.70   252.88   285.28   295.71
                              344.21   357.11   396.16   427.65   427.70
                              525.90   543.11   562.98   703.71   719.12
                              733.24   776.52   817.34   840.82   867.03
                              885.65   964.68  1025.79  1048.61  1079.15
                             1185.33  1198.38  1207.29  1262.18  1364.98
                             1415.06  1463.44  1473.30  1578.62  1654.99
                             1683.67  1685.79  1689.96  1722.13  1741.34
                             1754.66  1814.26  1819.82  1879.08  1883.31
                             1928.13  1971.81  2030.72  2073.15  2111.29
                             2140.28  2147.00  2151.19  2165.61  2167.91
                             2169.05  2259.72  2374.39  2396.29  2442.87
                             2589.13  4354.18  4367.29  4456.22  4474.74
                             4564.60  4569.99  4571.71  4638.77  4653.97
                             4671.59  5452.01  5466.11

 Zero-point correction=                           0.219465 (Hartree/Particle)
 Thermal correction to Energy=                    0.235278
 Thermal correction to Enthalpy=                  0.236222
 Thermal correction to Gibbs Free Energy=         0.175311
 Sum of electronic and zero-point Energies=           -802.062843
 Sum of electronic and thermal Energies=              -802.047030
 Sum of electronic and thermal Enthalpies=            -802.046086
 Sum of electronic and thermal Free Energies=         -802.106997

                     E (Thermal)             CV                S
                      KCal/Mol        Cal/Mol-Kelvin    Cal/Mol-Kelvin
 Total                  147.639             58.120            128.198
 Electronic               0.000              0.000              0.000
 Translational            0.889              2.981             42.123
 Rotational               0.889              2.981             33.361
 Vibrational            145.862             52.158             52.714
 Vibration     1          0.594              1.983              5.724
 Vibration     2          0.596              1.974              4.503
 Vibration     3          0.597              1.971              4.282
 Vibration     4          0.598              1.969              4.165
 Vibration     5          0.603              1.954              3.579
 Vibration     6          0.614              1.917              2.855
 Vibration     7          0.622              1.892              2.554
 Vibration     8          0.628              1.872              2.373
 Vibration     9          0.637              1.842              2.149
 Vibration    10          0.640              1.832              2.083
 Vibration    11          0.657              1.780              1.809
 Vibration    12          0.662              1.766              1.743
 Vibration    13          0.677              1.719              1.562
 Vibration    14          0.691              1.679              1.432
 Vibration    15          0.691              1.679              1.432
 Vibration    16          0.739              1.543              1.099
 Vibration    17          0.748              1.518              1.049
 Vibration    18          0.759              1.489              0.995
 Vibration    19          0.845              1.274              0.686
 Vibration    20          0.855              1.250              0.659
 Vibration    21          0.865              1.229              0.634
 Vibration    22          0.895              1.162              0.566
 Vibration    23          0.924              1.100              0.508
 Vibration    24          0.941              1.065              0.477
 Vibration    25          0.961              1.026              0.445
 Vibration    26          0.975              0.999              0.424

 Optimization completed.
    -- Stationary point found.
 Normal termination of Gaussian 09 at Tue Dec 17 23:00:09 2024.
