 Gaussian 09, Revision E.01,
 Gaussian 09:  ES64L-G09RevE.01 30-Nov-2015

 -------------------------------------------------------
 # opt freq b3pw91/6-31+g(d,p) EmpiricalDispersion=GD3BJ
 -------------------------------------------------------

 ----------
 [No Title]
 ----------
 Symbolic Z-matrix:
 Charge =  1 Multiplicity = 1

 SCF Done:  E(RB3PW91) =  -802.633043540     A.U. after   16 cycles
 SCF Done:  E(RB3PW91) =  -802.633097338     A.U. after   12 cycles
 SCF Done:  E(RB3PW91) =  -802.633104889     A.U. after   11 cycles
 SCF Done:  E(RB3PW91) =  -802.633104947     A.U. after    9 cycles
 Optimization completed.
    -- Stationary point found.
 Normal termination of Gaussian 09 at Tue Dec 17 23:03:21 2024.

 ----------------------------------------------------------------------
 #N Geom=AllCheck Guess=TCheck SCRF=Check GenChk RB3PW91/6-31+G(d,p) Fr
 eq
 ----------------------------------------------------------------------

 Structure from the checkpoint file:  "B3PW91D3BJSAYang.chk"
 ----------
 [No Title]
 ----------
 Charge =  1 Multiplicity = 1

                         Standard orientation:
 ---------------------------------------------------------------------
 Center     Atomic      Atomic             Coordinates (Angstroms)
 Number     Number       Type             X           Y           Z
 ---------------------------------------------------------------------
      1          6           0       -2.397506    0.203297    0.000881
      2          6           0       -1.928371   -1.133283   -0.006910
      3          6           0       -0.561962   -1.351850   -0.011200
      4          6           0        0.355380   -0.266319   -0.008391
      5          6           0       -0.126895    1.069941    0.002358
      6          6           0       -1.484551    1.292299    0.005228
      7          8           0       -3.699864    0.426014    0.004985
      8          8           0       -2.885329   -2.069730   -0.009139
      9          6           0       -2.486205   -3.435633   -0.017501
     10          8           0       -2.114340    2.486883    0.013992
     11          6           0       -1.324853    3.674222    0.018760
     12          6           0        1.730878   -0.574137   -0.012255
     13          6           0        2.794149    0.321135   -0.017649
     14          6           0        4.107957   -0.115260    0.001649
     15          8           0        5.072597    0.781056   -0.108683
     16          8           0        4.397717   -1.400031    0.137889
     17          1           0       -0.172772   -2.363061   -0.017219
     18          1           0        0.562449    1.903796    0.008042
     19          1           0       -3.854087    1.386977    0.010899
     20          1           0       -3.410841   -4.010519   -0.018306
     21          1           0       -1.908588   -3.668338   -0.919461
     22          1           0       -1.904105   -3.678106    0.878986
     23          1           0       -2.032735    4.501295    0.024712
     24          1           0       -0.700563    3.715891    0.917608
     25          1           0       -0.704323    3.725550   -0.882193
     26          1           0        1.984694   -1.632308   -0.009675
     27          1           0        2.659135    1.395003   -0.038675
     28          1           0        5.951655    0.459524    0.140069
     29          1           0        5.295694   -1.635709   -0.136939
 ---------------------------------------------------------------------

 SCF Done:  E(RB3PW91) =  -802.633104947     A.U. after    1 cycles

 The electronic state is 1-A.
 Alpha  occ. eigenvalues --  -19.37690 -19.37575 -19.32140 -19.31973 -19.29926
 Alpha  occ. eigenvalues --  -10.49619 -10.39539 -10.38337 -10.37674 -10.36416
 Alpha  occ. eigenvalues --  -10.34868 -10.33913 -10.33713 -10.33335 -10.32667
 Alpha  occ. eigenvalues --  -10.32448  -1.31571  -1.23921  -1.23865  -1.21049
 Alpha  occ. eigenvalues --   -1.19682  -1.01306  -0.97356  -0.91853  -0.90385
 Alpha  occ. eigenvalues --   -0.85650  -0.84896  -0.81615  -0.79860  -0.78272
 Alpha  occ. eigenvalues --   -0.74089  -0.71576  -0.70515  -0.68002  -0.65926
 Alpha  occ. eigenvalues --   -0.64497  -0.63971  -0.63229  -0.61275  -0.61015
 Alpha  occ. eigenvalues --   -0.60174  -0.58984  -0.57997  -0.55745  -0.55268
 Alpha  occ. eigenvalues --   -0.55231  -0.54795  -0.53343  -0.52968  -0.52135
 Alpha  occ. eigenvalues --   -0.50834  -0.49497  -0.47972  -0.47947  -0.46484
 Alpha  occ. eigenvalues --   -0.45723  -0.42103  -0.36649  -0.34645
 Alpha virt. eigenvalues --   -0.24504  -0.14714  -0.13924  -0.12371  -0.09258
 Alpha virt. eigenvalues --   -0.09144  -0.08932  -0.08095  -0.07264  -0.06100
 Alpha virt. eigenvalues --   -0.05566  -0.05275  -0.04632  -0.03848  -0.03730

 Mulliken charges:
               1
     1  C   -0.306328
     2  C    0.395004
     3  C    0.123937
     4  C   -0.348080
     5  C   -0.091909
     6  C    0.245723
     7  O   -0.438697
     8  O   -0.302768
     9  C   -0.142192
    10  O   -0.400054
    11  C   -0.150345
    12  C    0.057017
    13  C   -0.632327
    14  C    0.859669
    15  O   -0.398800
    16  O   -0.442930
    17  H    0.167562
    18  H    0.151401
    19  H    0.428562
    20  H    0.194595
    21  H    0.167733
    22  H    0.168038
    23  H    0.194090
    24  H    0.174206
    25  H    0.174302
    26  H    0.187383
    27  H    0.181564
    28  H    0.390648
    29  H    0.392998
 Sum of Mulliken charges =   1.00000

 Dipole moment (field-independent basis, Debye):
    X=              9.7720    Y=             -0.0489    Z=             -0.0426  Tot=              9.7722
 Quadrupole moment (field-independent basis, Debye-Ang):
   XX=             -9.9696   YY=            -55.4528   ZZ=            -93.7478
   XY=            -11.2033   XZ=              0.1321   YZ=              1.3765

  Exact polarizability: 335.621  -7.000 166.017  -0.202  -0.186  80.046
 Approx polarizability: 672.720 -28.891 237.399  -0.794  -0.918 118.761

                      1                      2                      3
                      A                      A                      A
 Frequencies --     46.9446                57.7483                66.6920
 Red. masses --      6.3927                 5.4565                 3.2173
 Frc consts  --      0.0083                 0.0107                 0.0084
 IR Inten    --      0.6131                 1.0622                 8.5601

                      4                      5                      6
                      A                      A                      A
 Frequencies --     71.9311               110.1039               142.9970
 Red. masses --      5.0952                 3.6611                 5.7251
 Frc consts  --      0.0155                 0.0261                 0.0690
 IR Inten    --      0.7224                 0.1044                 0.8330

                      7                      8                      9
                      A                      A                      A
 Frequencies --    171.3879               179.0187               193.2967
 Red. masses --      3.8641                 3.1562                 1.7464
 Frc consts  --      0.0669                 0.0596                 0.0384
 IR Inten    --      3.0891                16.4486                 9.4702

                     10                     11                     12
                      A                      A                      A
 Frequencies --    197.3822               239.7072               245.4125
 Red. masses --      2.5898                 1.2110                 4.8047
 Frc consts  --      0.0594                 0.0410                 0.1705
 IR Inten    --      7.4850                19.6221                 4.4203

                     13                     14                     15
                      A                      A                      A
 Frequencies --    258.0557               285.5583               307.1299
 Red. masses --      1.6088                 1.5873                 5.7373
 Frc consts  --      0.0631                 0.0763                 0.3189
 IR Inten    --     86.2290                91.6045                20.2445

                     16                     17                     18
                      A                      A                      A
 Frequencies --    338.3660               361.0357               377.0137
 Red. masses --      2.4832                 4.3561                 4.5006
 Frc consts  --      0.1675                 0.3345                 0.3769
 IR Inten    --     55.6025                 2.2772                 0.7131

                     19                     20                     21
                      A                      A                      A
 Frequencies --    408.4907               414.2821               498.7375
 Red. masses --      1.2818                 2.6737                 6.1209
 Frc consts  --      0.1260                 0.2704                 0.8970
 IR Inten    --    217.5657                40.5616                 8.9164

                     22                     23                     24
                      A                      A                      A
 Frequencies --    528.1425               530.4065               557.9021
 Red. masses --      6.4478                 5.0389                 2.6711
 Frc consts  --      1.0597                 0.8352                 0.4898
 IR Inten    --      9.6311                17.3115                17.7731

                     25                     26                     27
                      A                      A                      A
 Frequencies --    581.6514               586.5245               618.5676
 Red. masses --      3.6967                 3.7431                 1.3191
 Frc consts  --      0.7369                 0.7587                 0.2974
 IR Inten    --     12.2949                 9.0561                82.7316

                     28                     29                     30
                      A                      A                      A
 Frequencies --    672.8334               688.7010               715.6568
 Red. masses --      4.2984                 4.9663                 5.0156
 Frc consts  --      1.1465                 1.3879                 1.5135
 IR Inten    --      0.4751                 8.1197                46.4025

                     31                     32                     33
                      A                      A                      A
 Frequencies --    727.9528               827.9018               841.9175
 Red. masses --     10.2873                 1.5444                 5.5421
 Frc consts  --      3.2119                 0.6237                 2.3146
 IR Inten    --      0.1508                 5.9689                 2.7936

                     34                     35                     36
                      A                      A                      A
 Frequencies --    844.6690               862.9513               947.9340
 Red. masses --      1.3498                 1.5298                 5.0900
 Frc consts  --      0.5674                 0.6712                 2.6948
 IR Inten    --     39.0053                24.0377                 3.4167

                     37                     38                     39
                      A                      A                      A
 Frequencies --    989.0577               994.6741              1026.0674
 Red. masses --      1.4281                 3.7190                 3.7057
 Frc consts  --      0.8231                 2.1679                 2.2986
 IR Inten    --     66.3335               153.2479                18.8528

                     40                     41                     42
                      A                      A                      A
 Frequencies --   1078.7594              1144.9443              1160.8116
 Red. masses --      4.8339                 1.1434                 2.6288
 Frc consts  --      3.3143                 0.8831                 2.0871
 IR Inten    --      0.7969               152.3506               530.0340

                     43                     44                     45
                      A                      A                      A
 Frequencies --   1168.0325              1170.6551              1173.5287
 Red. masses --      1.5832                 1.2744                 1.2679
 Frc consts  --      1.2726                 1.0290                 1.0288
 IR Inten    --    834.6249                 1.0384                 0.6086

                     46                     47                     48
                      A                      A                      A
 Frequencies --   1204.9627              1208.1531              1231.2039
 Red. masses --      1.3989                 1.3704                 1.6230
 Frc consts  --      1.1967                 1.1785                 1.4495
 IR Inten    --      7.7607                 4.5829                23.9852

                     49                     50                     51
                      A                      A                      A
 Frequencies --   1269.6505              1285.7005              1307.4353
 Red. masses --      1.9916                 1.6163                 1.7319
 Frc consts  --      1.8916                 1.5742                 1.7442
 IR Inten    --    290.2418                49.8359               286.2988

                     52                     53                     54
                      A                      A                      A
 Frequencies --   1329.0285              1360.5036              1403.3095
 Red. masses --      1.5138                 3.7375                 2.9851
 Frc consts  --      1.5754                 4.0760                 3.4635
 IR Inten    --      5.1891                49.8129               382.1962

                     55                     56                     57
                      A                      A                      A
 Frequencies --   1438.6296              1474.9905              1479.9496
 Red. masses --      3.9531                 1.2706                 1.9131
 Frc consts  --      4.8204                 1.6286                 2.4688
 IR Inten    --    668.7123                 1.9961               135.9061

                     58                     59                     60
                      A                      A                      A
 Frequencies --   1493.9579              1495.1001              1497.7601
 Red. masses --      2.2929                 1.0433                 1.0439
 Frc consts  --      3.0152                 1.3740                 1.3797
 IR Inten    --    305.1237                14.6394                14.7187

                     61                     62                     63
                      A                      A                      A
 Frequencies --   1499.7494              1500.8432              1537.6407
 Red. masses --      1.0800                 1.0970                 5.3018
 Frc consts  --      1.4312                 1.4559                 7.3855
 IR Inten    --     15.7622               156.6235               402.5768

                     64                     65                     66
                      A                      A                      A
 Frequencies --   1551.9998              1618.4417              1637.2808
 Red. masses --      5.2143                 4.8928                 5.8526
 Frc consts  --      7.4000                 7.5510                 9.2437
 IR Inten    --    739.7377                71.8662               489.3570

                     67                     68                     69
                      A                      A                      A
 Frequencies --   1650.7298              1686.2519              3040.1072
 Red. masses --      4.8138                 5.6011                 1.0341
 Frc consts  --      7.7285                 9.3835                 5.6310
 IR Inten    --    516.8830               796.7202                30.1490

                     70                     71                     72
                      A                      A                      A
 Frequencies --   3049.2458              3119.3495              3132.4230
 Red. masses --      1.0332                 1.1074                 1.1080
 Frc consts  --      5.6598                 6.3487                 6.4057
 IR Inten    --     22.9690                22.3650                17.3170

                     73                     74                     75
                      A                      A                      A
 Frequencies --   3195.4564              3196.3826              3199.6780
 Red. masses --      1.0900                 1.1013                 1.1025
 Frc consts  --      6.5576                 6.6291                 6.6505
 IR Inten    --      0.7989                 5.2521                 4.0336

                     76                     77                     78
                      A                      A                      A
 Frequencies --   3240.8270              3251.5965              3259.4408
 Red. masses --      1.0909                 1.0915                 1.0898
 Frc consts  --      6.7509                 6.7994                 6.8218
 IR Inten    --      1.5280                 2.8231                 0.0253

                     79                     80                     81
                      A                      A                      A
 Frequencies --   3733.5823              3807.7829              3817.0016
 Red. masses --      1.0650                 1.0678                 1.0661
 Frc consts  --      8.7468                 9.1223                 9.1512
 IR Inten    --    350.6164                67.6860               648.3291

 - Thermochemistry -
 -------------------
 Temperature   298.150 Kelvin.  Pressure   1.00000 Atm.
 Atom     1 has atomic number  6 and mass  12.00000

 Molecular mass:   225.07630 amu.
 Principal axes and moments of inertia in atomic units:
                           1         2         3
     Eigenvalues --  2525.549846555.969629054.24274
           X            0.99999   0.00349  -0.00005
           Y           -0.00349   0.99999   0.00114
           Z            0.00005  -0.00114   1.00000
 This molecule is an asymmetric top.
 Rotational symmetry number  1.
 Warning -- assumption of classical behavior for rotation
           may cause significant error
 Rotational temperatures (Kelvin)      0.03430     0.01321     0.00957
 Rotational constants (GHZ):           0.71459     0.27528     0.19933
 Zero-point vibrational energy     607808.7 (Joules/Mol)
                                  145.26977 (Kcal/Mol)
 Warning -- explicit consideration of  27 degrees of freedom as
           vibrations may cause significant error
 Vibrational temperatures:     67.54    83.09    95.95   103.49   158.41
          (Kelvin)            205.74   246.59   257.57   278.11   283.99
                              344.88   353.09   371.28   410.85   441.89
                              486.83   519.45   542.44   587.73   596.06
                              717.57   759.88   763.14   802.70   836.87
                              843.88   889.98   968.06   990.89  1029.67
                             1047.36  1191.16  1211.33  1215.29  1241.59
                             1363.86  1423.03  1431.11  1476.28  1552.09
                             1647.32  1670.15  1680.54  1684.31  1688.44
                             1733.67  1738.26  1771.43  1826.74  1849.83
                             1881.11  1912.17  1957.46  2019.05  2069.86
                             2122.18  2129.31  2149.47  2151.11  2154.94
                             2157.80  2159.38  2212.32  2232.98  2328.57
                             2355.68  2375.03  2426.14  4374.03  4387.18
                             4488.04  4506.85  4597.54  4598.88  4603.62
                             4662.82  4678.32  4689.60  5371.79  5478.54
                             5491.81

 Zero-point correction=                           0.231502 (Hartree/Particle)
 Thermal correction to Energy=                    0.247734
 Thermal correction to Enthalpy=                  0.248678
 Thermal correction to Gibbs Free Energy=         0.187575
 Sum of electronic and zero-point Energies=           -802.401603
 Sum of electronic and thermal Energies=              -802.385371
 Sum of electronic and thermal Enthalpies=            -802.384427
 Sum of electronic and thermal Free Energies=         -802.445530

                     E (Thermal)             CV                S
                      KCal/Mol        Cal/Mol-Kelvin    Cal/Mol-Kelvin
 Total                  155.455             60.223            128.601
 Electronic               0.000              0.000              0.000
 Translational            0.889              2.981             42.136
 Rotational               0.889              2.981             33.372
 Vibrational            153.678             54.261             53.093
 Vibration     1          0.595              1.979              4.942
 Vibration     2          0.596              1.974              4.533
 Vibration     3          0.598              1.970              4.249
 Vibration     4          0.598              1.967              4.100
 Vibration     5          0.606              1.941              3.267
 Vibration     6          0.616              1.910              2.763
 Vibration     7          0.626              1.878              2.420
 Vibration     8          0.629              1.868              2.339
 Vibration     9          0.635              1.849              2.196
 Vibration    10          0.637              1.844              2.157
 Vibration    11          0.657              1.780              1.805
 Vibration    12          0.660              1.770              1.763
 Vibration    13          0.667              1.749              1.675
 Vibration    14          0.683              1.700              1.500
 Vibration    15          0.697              1.660              1.378
 Vibration    16          0.719              1.599              1.220
 Vibration    17          0.735              1.553              1.118
 Vibration    18          0.748              1.519              1.051
 Vibration    19          0.773              1.452              0.932
 Vibration    20          0.778              1.439              0.912
 Vibration    21          0.854              1.253              0.661
 Vibration    22          0.883              1.188              0.591
 Vibration    23          0.885              1.183              0.586
 Vibration    24          0.913              1.122              0.528
 Vibration    25          0.938              1.071              0.482
 Vibration    26          0.944              1.061              0.473
 Vibration    27          0.978              0.993              0.419

 Normal termination of Gaussian 09 at Tue Dec 17 23:11:07 2024.
