 Gaussian 09, Revision E.01,
 Gaussian 09:  ES64L-G09RevE.01 30-Nov-2015

 -----------------------------------------
 # opt freq cam-b3lyp/6-31+g(d,p) em=gd3bj
 -----------------------------------------

 ----------
 [No Title]
 ----------
 Symbolic Z-matrix:
 Charge =  1 Multiplicity = 1

 SCF Done:  E(RCAM-B3LYP) =  -802.544684089     A.U. after   17 cycles
 SCF Done:  E(RCAM-B3LYP) =  -802.545163322     A.U. after   12 cycles
 SCF Done:  E(RCAM-B3LYP) =  -802.545185512     A.U. after   12 cycles
 SCF Done:  E(RCAM-B3LYP) =  -802.545189397     A.U. after   11 cycles
 SCF Done:  E(RCAM-B3LYP) =  -802.545191953     A.U. after   11 cycles
 SCF Done:  E(RCAM-B3LYP) =  -802.545194455     A.U. after   11 cycles
 SCF Done:  E(RCAM-B3LYP) =  -802.545195921     A.U. after   11 cycles
 SCF Done:  E(RCAM-B3LYP) =  -802.545196324     A.U. after    9 cycles
 Optimization completed.
    -- Stationary point found.
 Normal termination of Gaussian 09 at Tue Feb 27 12:27:55 2024.

 ----------------------------------------------------------------------
 #N Geom=AllCheck Guess=TCheck SCRF=Check GenChk RCAM-B3LYP/6-31+G(d,p)
  Freq
 ----------------------------------------------------------------------

 Structure from the checkpoint file:  "lwcamSAYang.chk"
 ----------
 [No Title]
 ----------
 Charge =  1 Multiplicity = 1

                         Standard orientation:
 ---------------------------------------------------------------------
 Center     Atomic      Atomic             Coordinates (Angstroms)
 Number     Number       Type             X           Y           Z
 ---------------------------------------------------------------------
      1          6           0       -2.390622    0.197810    0.001313
      2          6           0       -1.918592   -1.132350   -0.006022
      3          6           0       -0.555091   -1.347074   -0.010708
      4          6           0        0.356667   -0.260470   -0.008844
      5          6           0       -0.130478    1.071243    0.001841
      6          6           0       -1.485740    1.287251    0.005249
      7          8           0       -3.693827    0.415397    0.005578
      8          8           0       -2.872363   -2.074566   -0.007621
      9          6           0       -2.476489   -3.439819   -0.017081
     10          8           0       -2.118856    2.482227    0.014070
     11          6           0       -1.338977    3.674539    0.016902
     12          6           0        1.731568   -0.561770   -0.012261
     13          6           0        2.792471    0.332785   -0.018192
     14          6           0        4.100688   -0.110784    0.001123
     15          8           0        5.069812    0.775838   -0.098675
     16          8           0        4.383421   -1.394768    0.127532
     17          1           0       -0.163845   -2.356420   -0.016390
     18          1           0        0.554703    1.907370    0.007000
     19          1           0       -3.861015    1.373940    0.011265
     20          1           0       -3.400559   -4.013899   -0.017916
     21          1           0       -1.900007   -3.673119   -0.918491
     22          1           0       -1.894843   -3.684174    0.878061
     23          1           0       -2.051177    4.496728    0.022420
     24          1           0       -0.714648    3.722122    0.914277
     25          1           0       -0.719739    3.729645   -0.883569
     26          1           0        1.988077   -1.618546   -0.008910
     27          1           0        2.660162    1.405822   -0.040053
     28          1           0        5.956153    0.450211    0.119736
     29          1           0        5.288812   -1.640872   -0.114420
 ---------------------------------------------------------------------

 SCF Done:  E(RCAM-B3LYP) =  -802.545196323     A.U. after    1 cycles

 The electronic state is 1-A.
 Alpha  occ. eigenvalues --  -19.46555 -19.46377 -19.39732 -19.39529 -19.37436
 Alpha  occ. eigenvalues --  -10.59457 -10.48028 -10.46689 -10.46026 -10.45859
 Alpha  occ. eigenvalues --  -10.43329 -10.42291 -10.42135 -10.41780 -10.41271
 Alpha  occ. eigenvalues --  -10.41079  -1.40023  -1.31983  -1.31125  -1.28189
 Alpha  occ. eigenvalues --   -1.26737  -1.09470  -1.05537  -0.99629  -0.97932
 Alpha  occ. eigenvalues --   -0.93173  -0.92317  -0.88840  -0.87408  -0.85635
 Alpha  occ. eigenvalues --   -0.81102  -0.78760  -0.77375  -0.75178  -0.72814
 Alpha  occ. eigenvalues --   -0.71730  -0.71088  -0.69795  -0.68101  -0.67853
 Alpha  occ. eigenvalues --   -0.66890  -0.65668  -0.64538  -0.62159  -0.62115
 Alpha  occ. eigenvalues --   -0.61719  -0.61503  -0.60124  -0.59684  -0.58593
 Alpha  occ. eigenvalues --   -0.57333  -0.55573  -0.54030  -0.53909  -0.52451
 Alpha  occ. eigenvalues --   -0.51638  -0.47801  -0.41731  -0.38943
 Alpha virt. eigenvalues --   -0.20708  -0.12713  -0.09119  -0.07491  -0.07306
 Alpha virt. eigenvalues --   -0.07055  -0.06334  -0.05691  -0.04259  -0.03940
 Alpha virt. eigenvalues --   -0.03396  -0.02693  -0.02526  -0.02353  -0.01654

 Mulliken charges:
               1
     1  C   -0.081243
     2  C    0.664495
     3  C   -0.164927
     4  C   -0.401867
     5  C   -0.214184
     6  C    0.357732
     7  O   -0.477467
     8  O   -0.371212
     9  C   -0.112152
    10  O   -0.467012
    11  C   -0.118055
    12  C    0.170129
    13  C   -0.703116
    14  C    0.965084
    15  O   -0.423588
    16  O   -0.470403
    17  H    0.149026
    18  H    0.133566
    19  H    0.430528
    20  H    0.182171
    21  H    0.155922
    22  H    0.156181
    23  H    0.181663
    24  H    0.163056
    25  H    0.163060
    26  H    0.176087
    27  H    0.165280
    28  H    0.393689
    29  H    0.397556
 Sum of Mulliken charges =   1.00000

 Dipole moment (field-independent basis, Debye):
    X=             10.6848    Y=             -0.1921    Z=             -0.0447  Tot=             10.6867
 Quadrupole moment (field-independent basis, Debye-Ang):
   XX=            -10.8742   YY=            -57.2710   ZZ=            -94.5771
   XY=            -11.8623   XZ=              0.1340   YZ=              1.2479

  Exact polarizability: 333.053  -7.155 162.606  -0.208  -0.183  80.619
 Approx polarizability: 380.737 -11.266 182.574  -0.501  -0.628 103.547

                      1                      2                      3
                      A                      A                      A
 Frequencies --     47.8373                58.3351                65.5164
 Red. masses --      6.4364                 5.2482                 3.2873
 Frc consts  --      0.0087                 0.0105                 0.0083
 IR Inten    --      0.9696                 0.7682                 9.2400

                      4                      5                      6
                      A                      A                      A
 Frequencies --     73.9123               106.1912               143.7270
 Red. masses --      5.0870                 3.6480                 5.7543
 Frc consts  --      0.0164                 0.0242                 0.0700
 IR Inten    --      0.7129                 0.2189                 1.1235

                      7                      8                      9
                      A                      A                      A
 Frequencies --    173.4360               176.8082               196.9920
 Red. masses --      3.7808                 3.0721                 1.9895
 Frc consts  --      0.0670                 0.0566                 0.0455
 IR Inten    --      8.2330                23.1480                21.7551

                     10                     11                     12
                      A                      A                      A
 Frequencies --    201.5732               236.0718               249.0575
 Red. masses --      2.1495                 1.1771                 3.7056
 Frc consts  --      0.0515                 0.0386                 0.1354
 IR Inten    --      5.0082                85.8284                21.7529

                     13                     14                     15
                      A                      A                      A
 Frequencies --    252.2489               284.7243               312.7788
 Red. masses --      1.5828                 1.7439                 6.2114
 Frc consts  --      0.0593                 0.0833                 0.3580
 IR Inten    --     53.7450                47.7515                12.0704

                     16                     17                     18
                      A                      A                      A
 Frequencies --    339.6046               364.1820               380.1942
 Red. masses --      2.7960                 4.3973                 4.5522
 Frc consts  --      0.1900                 0.3436                 0.3877
 IR Inten    --     35.1564                 2.3333                 1.2058

                     19                     20                     21
                      A                      A                      A
 Frequencies --    418.5535               422.5209               503.6593
 Red. masses --      2.4804                 1.3112                 6.1880
 Frc consts  --      0.2560                 0.1379                 0.9249
 IR Inten    --     41.4320               232.5511                21.4638

                     22                     23                     24
                      A                      A                      A
 Frequencies --    535.7481               536.0415               565.0207
 Red. masses --      6.7287                 4.9306                 2.5448
 Frc consts  --      1.1379                 0.8347                 0.4787
 IR Inten    --      4.2402                30.5748                21.6664

                     25                     26                     27
                      A                      A                      A
 Frequencies --    583.2190               591.6605               614.5432
 Red. masses --      3.6467                 3.7821                 1.3616
 Frc consts  --      0.7308                 0.7801                 0.3030
 IR Inten    --     12.5409                11.9305                83.5913

                     28                     29                     30
                      A                      A                      A
 Frequencies --    680.5435               706.5916               722.4766
 Red. masses --      4.1713                 4.9636                 5.0355
 Frc consts  --      1.1382                 1.4601                 1.5486
 IR Inten    --      0.5395                 9.0817                54.6542

                     31                     32                     33
                      A                      A                      A
 Frequencies --    734.1389               851.4408               858.7907
 Red. masses --      9.7738                 5.5305                 1.5623
 Frc consts  --      3.1036                 2.3623                 0.6789
 IR Inten    --      0.0497                 3.3466                 2.2153

                     34                     35                     36
                      A                      A                      A
 Frequencies --    872.0391               877.8565               956.7186
 Red. masses --      1.3954                 1.4416                 5.0592
 Frc consts  --      0.6252                 0.6546                 2.7283
 IR Inten    --     63.9886                11.5555                 1.4697

                     37                     38                     39
                      A                      A                      A
 Frequencies --   1006.5235              1018.7896              1035.2774
 Red. masses --      4.7439                 1.3519                 3.6969
 Frc consts  --      2.8316                 0.8267                 2.3345
 IR Inten    --    259.9186                18.6507                32.8022

                     40                     41                     42
                      A                      A                      A
 Frequencies --   1091.8712              1137.4206              1161.8236
 Red. masses --      4.8223                 1.1390                 1.5705
 Frc consts  --      3.3872                 0.8682                 1.2490
 IR Inten    --      3.2450               160.9318              1793.8753

                     43                     44                     45
                      A                      A                      A
 Frequencies --   1175.8540              1182.9537              1184.9001
 Red. masses --      2.6002                 1.2726                 1.2669
 Frc consts  --      2.1182                 1.0493                 1.0480
 IR Inten    --    171.9355                 1.3960                 0.8423

                     46                     47                     48
                      A                      A                      A
 Frequencies --   1215.3782              1219.0820              1243.3457
 Red. masses --      1.3865                 1.3782                 1.6763
 Frc consts  --      1.2067                 1.2067                 1.5268
 IR Inten    --     16.6850                 5.4446                17.4973

                     49                     50                     51
                      A                      A                      A
 Frequencies --   1280.0064              1296.0811              1316.9661
 Red. masses --      2.1333                 1.5953                 1.7242
 Frc consts  --      2.0594                 1.5789                 1.7619
 IR Inten    --    347.6849               197.8771               265.8591

                     52                     53                     54
                      A                      A                      A
 Frequencies --   1341.4629              1372.4302              1413.0382
 Red. masses --      1.5432                 3.8336                 3.0765
 Frc consts  --      1.6362                 4.2544                 3.6192
 IR Inten    --     29.4755                47.9028               780.0624

                     55                     56                     57
                      A                      A                      A
 Frequencies --   1440.1020              1487.9732              1493.9839
 Red. masses --      4.4293                 1.2586                 1.8622
 Frc consts  --      5.4122                 1.6418                 2.4489
 IR Inten    --    901.2118                14.2998               168.2376

                     58                     59                     60
                      A                      A                      A
 Frequencies --   1504.8058              1506.9111              1509.4939
 Red. masses --      2.3212                 1.0438                 1.0442
 Frc consts  --      3.0968                 1.3965                 1.4019
 IR Inten    --    638.1547                14.6208                14.9778

                     61                     62                     63
                      A                      A                      A
 Frequencies --   1510.5788              1511.7471              1540.8746
 Red. masses --      1.0570                 1.0715                 4.9606
 Frc consts  --      1.4210                 1.4428                 6.9394
 IR Inten    --     71.6732                39.5141               517.3910

                     64                     65                     66
                      A                      A                      A
 Frequencies --   1566.7995              1637.4578              1646.2454
 Red. masses --      5.0626                 5.1930                 4.5591
 Frc consts  --      7.3224                 8.2037                 7.2799
 IR Inten    --    785.6205               112.0194              1181.5725

                     67                     68                     69
                      A                      A                      A
 Frequencies --   1667.0511              1696.3402              3055.3384
 Red. masses --      5.5819                 5.7769                 1.0346
 Frc consts  --      9.1396                 9.7943                 5.6904
 IR Inten    --    126.0171               535.5238                28.0462

                     70                     71                     72
                      A                      A                      A
 Frequencies --   3064.7369              3129.6794              3143.0642
 Red. masses --      1.0336                 1.1080                 1.1086
 Frc consts  --      5.7200                 6.3941                 6.4526
 IR Inten    --     21.1412                22.2770                16.9679

                     73                     74                     75
                      A                      A                      A
 Frequencies --   3205.9296              3208.1950              3209.2535
 Red. masses --      1.1016                 1.0906                 1.1029
 Frc consts  --      6.6707                 6.6137                 6.6927
 IR Inten    --      4.8990                 0.7369                 3.9127

                     76                     77                     78
                      A                      A                      A
 Frequencies --   3253.8623              3263.4980              3274.2336
 Red. masses --      1.0914                 1.0922                 1.0904
 Frc consts  --      6.8085                 6.8535                 6.8872
 IR Inten    --      1.5254                 2.6479                 0.5060

                     79                     80                     81
                      A                      A                      A
 Frequencies --   3751.6863              3811.6714              3821.9014
 Red. masses --      1.0650                 1.0681                 1.0663
 Frc consts  --      8.8319                 9.1430                 9.1766
 IR Inten    --    388.6714                68.2668               754.7685

 - Thermochemistry -
 -------------------
 Temperature   298.150 Kelvin.  Pressure   1.00000 Atm.
 Atom     1 has atomic number  6 and mass  12.00000

 Molecular mass:   225.07630 amu.
 Principal axes and moments of inertia in atomic units:
                           1         2         3
     Eigenvalues --  2523.225216534.756009031.39258
           X            0.99999   0.00326   0.00002
           Y           -0.00326   0.99999   0.00097
           Z           -0.00001  -0.00097   1.00000
 This molecule is an asymmetric top.
 Rotational symmetry number  1.
 Warning -- assumption of classical behavior for rotation
           may cause significant error
 Rotational temperatures (Kelvin)      0.03433     0.01325     0.00959
 Rotational constants (GHZ):           0.71525     0.27618     0.19983
 Zero-point vibrational energy     611898.1 (Joules/Mol)
                                  146.24715 (Kcal/Mol)
 Warning -- explicit consideration of  27 degrees of freedom as
           vibrations may cause significant error
 Vibrational temperatures:     68.83    83.93    94.26   106.34   152.79
          (Kelvin)            206.79   249.54   254.39   283.43   290.02
                              339.65   358.34   362.93   409.65   450.02
                              488.61   523.98   547.01   602.20   607.91
                              724.65   770.82   771.24   812.94   839.12
                              851.27   884.19   979.15  1016.63  1039.48
                             1056.26  1225.03  1235.61  1254.67  1263.04
                             1376.50  1448.16  1465.81  1489.53  1570.96
                             1636.49  1671.60  1691.79  1702.00  1704.80
                             1748.66  1753.98  1788.89  1841.64  1864.77
                             1894.82  1930.06  1974.62  2033.04  2071.98
                             2140.86  2149.51  2165.08  2168.11  2171.82
                             2173.38  2175.06  2216.97  2254.27  2355.93
                             2368.58  2398.51  2440.65  4395.94  4409.47
                             4502.90  4522.16  4612.61  4615.87  4617.39
                             4681.58  4695.44  4710.89  5397.83  5484.14
                             5498.86

 Zero-point correction=                           0.233060 (Hartree/Particle)
 Thermal correction to Energy=                    0.249185
 Thermal correction to Enthalpy=                  0.250129
 Thermal correction to Gibbs Free Energy=         0.189209
 Sum of electronic and zero-point Energies=           -802.312137
 Sum of electronic and thermal Energies=              -802.296011
 Sum of electronic and thermal Enthalpies=            -802.295067
 Sum of electronic and thermal Free Energies=         -802.355987

                     E (Thermal)             CV                S
                      KCal/Mol        Cal/Mol-Kelvin    Cal/Mol-Kelvin
 Total                  156.366             59.721            128.217
 Electronic               0.000              0.000              0.000
 Translational            0.889              2.981             42.136
 Rotational               0.889              2.981             33.365
 Vibrational            154.588             53.759             52.716
 Vibration     1          0.595              1.978              4.905
 Vibration     2          0.596              1.974              4.513
 Vibration     3          0.597              1.971              4.284
 Vibration     4          0.599              1.966              4.046
 Vibration     5          0.605              1.944              3.337
 Vibration     6          0.616              1.909              2.754
 Vibration     7          0.627              1.875              2.398
 Vibration     8          0.628              1.871              2.362
 Vibration     9          0.636              1.844              2.161
 Vibration    10          0.638              1.838              2.119
 Vibration    11          0.655              1.786              1.832
 Vibration    12          0.662              1.764              1.737
 Vibration    13          0.664              1.759              1.715
 Vibration    14          0.683              1.702              1.505
 Vibration    15          0.701              1.649              1.348
 Vibration    16          0.720              1.596              1.214
 Vibration    17          0.738              1.546              1.104
 Vibration    18          0.750              1.512              1.038
 Vibration    19          0.781              1.430              0.897
 Vibration    20          0.785              1.421              0.883
 Vibration    21          0.859              1.242              0.649
 Vibration    22          0.891              1.171              0.575
 Vibration    23          0.891              1.170              0.574
 Vibration    24          0.921              1.107              0.514
 Vibration    25          0.940              1.068              0.479
 Vibration    26          0.949              1.050              0.464
 Vibration    27          0.974              1.001              0.425

 Normal termination of Gaussian 09 at Tue Feb 27 12:32:11 2024.
