 Gaussian 09, Revision E.01,
 Gaussian 09:  ES64L-G09RevE.01 30-Nov-2015

 -----------------------------------------
 # opt freq cam-b3lyp/6-31+g(d,p) em=gd3bj
 -----------------------------------------

 ----------
 [No Title]
 ----------
 Symbolic Z-matrix:
 Charge =  0 Multiplicity = 1

 SCF Done:  E(RCAM-B3LYP) =  -802.142826149     A.U. after   17 cycles
 SCF Done:  E(RCAM-B3LYP) =  -802.179489903     A.U. after   16 cycles
 SCF Done:  E(RCAM-B3LYP) =  -802.182918009     A.U. after   15 cycles
 SCF Done:  E(RCAM-B3LYP) =  -802.185303360     A.U. after   14 cycles
 SCF Done:  E(RCAM-B3LYP) =  -802.187004508     A.U. after   14 cycles
 SCF Done:  E(RCAM-B3LYP) =  -802.187106040     A.U. after   12 cycles
 SCF Done:  E(RCAM-B3LYP) =  -802.187113730     A.U. after   11 cycles
 SCF Done:  E(RCAM-B3LYP) =  -802.187114210     A.U. after   10 cycles
 Optimization completed.
    -- Stationary point found.
 Normal termination of Gaussian 09 at Mon Feb 26 14:22:43 2024.

 ----------------------------------------------------------------------
 #N Geom=AllCheck Guess=TCheck SCRF=Check GenChk RCAM-B3LYP/6-31+G(d,p)
  Freq
 ----------------------------------------------------------------------

 Structure from the checkpoint file:  "lwcamSA.chk"
 ----------
 [No Title]
 ----------
 Charge =  0 Multiplicity = 1

                         Standard orientation:
 ---------------------------------------------------------------------
 Center     Atomic      Atomic             Coordinates (Angstroms)
 Number     Number       Type             X           Y           Z
 ---------------------------------------------------------------------
      1          6           0        2.269805   -0.116325    0.000187
      2          6           0        1.690179    1.170062    0.000220
      3          6           0        0.315019    1.331554    0.000227
      4          6           0       -0.527462    0.210225    0.000187
      5          6           0        0.042130   -1.055333    0.000123
      6          6           0        1.425041   -1.232397    0.000023
      7          8           0        3.634465   -0.124379    0.000014
      8          8           0        2.582894    2.189751    0.000268
      9          6           0        2.083060    3.512234    0.000264
     10          8           0        1.792577   -2.555150   -0.000271
     11          6           0        3.129998   -3.003706   -0.000345
     12          6           0       -1.972280    0.430133    0.000199
     13          6           0       -2.938919   -0.497171   -0.000338
     14          6           0       -4.347312   -0.080514   -0.000229
     15          8           0       -5.186134   -1.142285   -0.000983
     16          8           0       -4.763242    1.059942    0.000404
     17          1           0       -0.122263    2.321184    0.000293
     18          1           0       -0.563478   -1.953101    0.000075
     19          1           0        3.982948   -1.017843    0.002349
     20          1           0        2.958288    4.160613    0.000284
     21          1           0        1.482513    3.711405   -0.894671
     22          1           0        1.482479    3.711400    0.895178
     23          1           0        3.075139   -4.092266   -0.000714
     24          1           0        3.667848   -2.697056   -0.906725
     25          1           0        3.667649   -2.697799    0.906446
     26          1           0       -2.297534    1.468649    0.000675
     27          1           0       -2.744586   -1.563135   -0.000886
     28          1           0       -6.089031   -0.787658   -0.000871
 ---------------------------------------------------------------------

 SCF Done:  E(RCAM-B3LYP) =  -802.187114210     A.U. after    1 cycles

 The electronic state is 1-A.
 Alpha  occ. eigenvalues --  -19.27632 -19.27424 -19.27014 -19.26429 -19.21552
 Alpha  occ. eigenvalues --  -10.40074 -10.34351 -10.34344 -10.34224 -10.33699
 Alpha  occ. eigenvalues --  -10.32063 -10.29323 -10.28574 -10.27569 -10.27309
 Alpha  occ. eigenvalues --  -10.27076  -1.19324  -1.17856  -1.16454  -1.14625
 Alpha  occ. eigenvalues --   -1.09729  -0.95960  -0.89849  -0.86385  -0.84453
 Alpha  occ. eigenvalues --   -0.79706  -0.78898  -0.75644  -0.70973  -0.69344
 Alpha  occ. eigenvalues --   -0.64628  -0.62942  -0.61435  -0.59560  -0.58241
 Alpha  occ. eigenvalues --   -0.57043  -0.56793  -0.55238  -0.55156  -0.53721
 Alpha  occ. eigenvalues --   -0.52520  -0.52327  -0.50247  -0.49735  -0.48778
 Alpha  occ. eigenvalues --   -0.47584  -0.47120  -0.45067  -0.44603  -0.43706
 Alpha  occ. eigenvalues --   -0.42585  -0.40966  -0.40428  -0.40385  -0.38851
 Alpha  occ. eigenvalues --   -0.34864  -0.33842  -0.28591  -0.26714
 Alpha virt. eigenvalues --   -0.02751   0.01912   0.03311   0.03730   0.03940
 Alpha virt. eigenvalues --    0.04544   0.04830   0.05619   0.05915   0.06770
 Alpha virt. eigenvalues --    0.07032   0.07702   0.07926   0.08852   0.09092

 Mulliken charges:
               1
     1  C    0.045069
     2  C    0.352179
     3  C   -0.079008
     4  C   -0.272010
     5  C   -0.354760
     6  C    0.221277
     7  O   -0.544445
     8  O   -0.377295
     9  C   -0.117458
    10  O   -0.390384
    11  C   -0.172551
    12  C    0.308811
    13  C   -0.641843
    14  C    0.815644
    15  O   -0.476951
    16  O   -0.526446
    17  H    0.129075
    18  H    0.129561
    19  H    0.358449
    20  H    0.155225
    21  H    0.148726
    22  H    0.148717
    23  H    0.167894
    24  H    0.146875
    25  H    0.146642
    26  H    0.159375
    27  H    0.140122
    28  H    0.379512
 Sum of Mulliken charges =  -0.00000

 Dipole moment (field-independent basis, Debye):
    X=              3.1997    Y=             -1.6876    Z=              0.0024  Tot=              3.6175
 Quadrupole moment (field-independent basis, Debye-Ang):
   XX=            -92.1122   YY=            -81.1608   ZZ=            -96.5906
   XY=             -3.3844   XZ=              0.0182   YZ=             -0.0045

  Exact polarizability: 235.505   2.964 167.147   0.013   0.012  84.712
 Approx polarizability: 241.219   7.918 197.770   0.012   0.015 107.881

 ******    2 imaginary frequencies (negative Signs) ******

                      1                      2                      3
                      A                      A                      A
 Frequencies --   -135.2304               -22.8869                25.4504
 Red. masses --      1.6878                 1.5453                 6.2136
 Frc consts  --      0.0182                 0.0005                 0.0024
 IR Inten    --      9.6820                66.4233                 0.4396

                      4                      5                      6
                      A                      A                      A
 Frequencies --     64.9027                71.8608                78.7626
 Red. masses --      8.3910                 5.9883                 3.4327
 Frc consts  --      0.0208                 0.0182                 0.0125
 IR Inten    --      2.1055                 0.1323                 9.3122

                      7                      8                      9
                      A                      A                      A
 Frequencies --    129.9793               147.5614               190.3187
 Red. masses --      3.6143                 4.5683                 4.3307
 Frc consts  --      0.0360                 0.0586                 0.0924
 IR Inten    --      0.6506                 1.5055                 4.1346

                     10                     11                     12
                      A                      A                      A
 Frequencies --    206.6299               221.1812               246.5136
 Red. masses --      5.6376                 2.0913                 2.4325
 Frc consts  --      0.1418                 0.0603                 0.0871
 IR Inten    --      0.6646                 0.5719                 0.0991

                     13                     14                     15
                      A                      A                      A
 Frequencies --    261.1290               297.2903               324.0871
 Red. masses --      4.6442                 1.8011                 1.0656
 Frc consts  --      0.1866                 0.0938                 0.0659
 IR Inten    --      0.2630                 0.6399                 8.7170

                     16                     17                     18
                      A                      A                      A
 Frequencies --    329.4240               344.7674               397.6159
 Red. masses --      4.5701                 5.6817                 4.6533
 Frc consts  --      0.2922                 0.3979                 0.4334
 IR Inten    --      3.9883                 1.4907                 0.5273

                     19                     20                     21
                      A                      A                      A
 Frequencies --    411.9743               475.8094               506.4691
 Red. masses --      4.3898                 6.1035                 6.1284
 Frc consts  --      0.4390                 0.8141                 0.9262
 IR Inten    --      1.9971                21.1512                 7.6349

                     22                     23                     24
                      A                      A                      A
 Frequencies --    546.2129               577.6846               588.4750
 Red. masses --      5.3186                 1.8731                 3.7093
 Frc consts  --      0.9349                 0.3683                 0.7568
 IR Inten    --      3.1382                22.9093                 5.7144

                     25                     26                     27
                      A                      A                      A
 Frequencies --    591.7583               628.4169               669.8116
 Red. masses --      5.5300                 1.8197                 4.6297
 Frc consts  --      1.1410                 0.4234                 1.2238
 IR Inten    --     67.5270                82.8279                19.9412

                     28                     29                     30
                      A                      A                      A
 Frequencies --    728.6872               733.9094               762.1293
 Red. masses --      4.4907                 5.8045                 3.8492
 Frc consts  --      1.4049                 1.8420                 1.3173
 IR Inten    --      5.8666                 0.0689                19.2775

                     31                     32                     33
                      A                      A                      A
 Frequencies --    824.3000               860.9383               883.4610
 Red. masses --      5.7311                 1.5361                 1.4780
 Frc consts  --      2.2943                 0.6708                 0.6797
 IR Inten    --      8.5160                47.2162                10.0601

                     34                     35                     36
                      A                      A                      A
 Frequencies --    908.7490               948.3334               988.0686
 Red. masses --      2.0214                 4.8173                 3.5671
 Frc consts  --      0.9835                 2.5525                 2.0518
 IR Inten    --     11.6884                11.0712                27.6763

                     37                     38                     39
                      A                      A                      A
 Frequencies --   1017.2422              1038.4465              1115.7271
 Red. masses --      4.4949                 1.1769                 3.3338
 Frc consts  --      2.7404                 0.7478                 2.4452
 IR Inten    --     18.4311                31.5076                29.0819

                     40                     41                     42
                      A                      A                      A
 Frequencies --   1143.8508              1170.9121              1172.0289
 Red. masses --      2.2755                 2.3705                 1.2562
 Frc consts  --      1.7541                 1.9149                 1.0167
 IR Inten    --    200.2189               594.3499                 1.5581

                     43                     44                     45
                      A                      A                      A
 Frequencies --   1184.4772              1199.2101              1216.6316
 Red. masses --      1.2771                 1.7520                 1.3599
 Frc consts  --      1.0556                 1.4845                 1.1860
 IR Inten    --      1.1888                 1.1186                32.6632

                     46                     47                     48
                      A                      A                      A
 Frequencies --   1223.2446              1269.6371              1272.6119
 Red. masses --      1.5638                 2.2293                 1.6974
 Frc consts  --      1.3786                 2.1173                 1.6196
 IR Inten    --      2.6555               111.6606               186.3577

                     49                     50                     51
                      A                      A                      A
 Frequencies --   1284.3890              1301.8741              1345.8959
 Red. masses --      1.8340                 2.5668                 1.5860
 Frc consts  --      1.7825                 2.5632                 1.6926
 IR Inten    --    153.2191                30.9127                60.1429

                     52                     53                     54
                      A                      A                      A
 Frequencies --   1366.6876              1401.6259              1431.7382
 Red. masses --      2.2122                 3.3045                 4.3786
 Frc consts  --      2.4345                 3.8249                 5.2883
 IR Inten    --      7.7989               380.2220               113.6612

                     55                     56                     57
                      A                      A                      A
 Frequencies --   1473.0804              1497.8105              1507.6832
 Red. masses --      1.5463                 1.3304                 1.0444
 Frc consts  --      1.9769                 1.7585                 1.3987
 IR Inten    --     60.5845                16.6383                10.0062

                     58                     59                     60
                      A                      A                      A
 Frequencies --   1511.0231              1517.9888              1524.1763
 Red. masses --      2.0935                 1.1256                 1.0481
 Frc consts  --      2.8161                 1.5282                 1.4346
 IR Inten    --    103.9524                51.5195                 8.2190

                     61                     62                     63
                      A                      A                      A
 Frequencies --   1531.5943              1575.6238              1671.6380
 Red. masses --      1.0498                 5.0956                 7.1331
 Frc consts  --      1.4509                 7.4534                11.7439
 IR Inten    --     29.5934               316.2313               191.9660

                     64                     65                     66
                      A                      A                      A
 Frequencies --   1686.8473              1734.8682              1825.3456
 Red. masses --      6.7271                 6.3256                 9.0817
 Frc consts  --     11.2780                11.2171                17.8282
 IR Inten    --     38.7050               390.7571               342.9024

                     67                     68                     69
                      A                      A                      A
 Frequencies --   3022.4935              3045.3443              3093.1326
 Red. masses --      1.0369                 1.0346                 1.1082
 Frc consts  --      5.5812                 5.6530                 6.2470
 IR Inten    --     50.2463                47.3844                27.7060

                     70                     71                     72
                      A                      A                      A
 Frequencies --   3112.8085              3170.5874              3183.2569
 Red. masses --      1.1068                 1.0963                 1.1010
 Frc consts  --      6.3187                 6.4934                 6.5730
 IR Inten    --     31.9165                14.8314                18.7840

                     73                     74                     75
                      A                      A                      A
 Frequencies --   3194.2657              3238.9236              3248.3537
 Red. masses --      1.0900                 1.0924                 1.0906
 Frc consts  --      6.5529                 6.7519                 6.7802
 IR Inten    --      0.8217                 2.2429                 2.3277

                     76                     77                     78
                      A                      A                      A
 Frequencies --   3253.6511              3807.0928              3952.4076
 Red. masses --      1.0908                 1.0644                 1.0653
 Frc consts  --      6.8033                 9.0896                 9.8049
 IR Inten    --      2.2551               129.0571               189.6090

 - Thermochemistry -
 -------------------
 Temperature   298.150 Kelvin.  Pressure   1.00000 Atm.
 Atom     1 has atomic number  6 and mass  12.00000

 Molecular mass:   224.06847 amu.
 Principal axes and moments of inertia in atomic units:
                           1         2         3
     Eigenvalues --  2311.663116976.935679265.23695
           X            0.99999  -0.00498  -0.00005
           Y            0.00498   0.99999  -0.00013
           Z            0.00005   0.00013   1.00000
 This molecule is an asymmetric top.
 Rotational symmetry number  1.
 Warning -- assumption of classical behavior for rotation
           may cause significant error
 Rotational temperatures (Kelvin)      0.03747     0.01241     0.00935
 Rotational constants (GHZ):           0.78071     0.25867     0.19479
    2 imaginary frequencies ignored.
 Zero-point vibrational energy     577251.4 (Joules/Mol)
                                  137.96638 (Kcal/Mol)
 Warning -- explicit consideration of  23 degrees of freedom as
           vibrations may cause significant error
 Vibrational temperatures:     36.62    93.38   103.39   113.32   187.01
          (Kelvin)            212.31   273.83   297.29   318.23   354.68
                              375.71   427.73   466.29   473.97   496.04
                              572.08   592.74   684.58   728.70   785.88
                              831.16   846.68   851.41   904.15   963.71
                             1048.42  1055.93  1096.53  1185.98  1238.70
                             1271.10  1307.49  1364.44  1421.61  1463.58
                             1494.09  1605.28  1645.74  1684.68  1686.29
                             1704.20  1725.39  1750.46  1759.97  1826.72
                             1831.00  1847.95  1873.10  1936.44  1966.36
                             2016.62  2059.95  2119.43  2155.01  2169.22
                             2174.02  2184.04  2192.95  2203.62  2266.97
                             2405.11  2426.99  2496.09  2626.26  4348.69
                             4381.57  4450.32  4478.63  4561.76  4579.99
                             4595.83  4660.08  4673.65  4681.27  5477.55
                             5686.63

 Zero-point correction=                           0.219863 (Hartree/Particle)
 Thermal correction to Energy=                    0.234458
 Thermal correction to Enthalpy=                  0.235402
 Thermal correction to Gibbs Free Energy=         0.177010
 Sum of electronic and zero-point Energies=           -801.967251
 Sum of electronic and thermal Energies=              -801.952656
 Sum of electronic and thermal Enthalpies=            -801.951712
 Sum of electronic and thermal Free Energies=         -802.010104

                     E (Thermal)             CV                S
                      KCal/Mol        Cal/Mol-Kelvin    Cal/Mol-Kelvin
 Total                  147.125             54.342            122.896
 Electronic               0.000              0.000              0.000
 Translational            0.889              2.981             42.123
 Rotational               0.889              2.981             33.368
 Vibrational            145.347             48.380             47.405
 Vibration     1          0.593              1.985              6.156
 Vibration     2          0.597              1.971              4.302
 Vibration     3          0.598              1.967              4.102
 Vibration     4          0.600              1.963              3.921
 Vibration     5          0.612              1.923              2.946
 Vibration     6          0.617              1.905              2.703
 Vibration     7          0.634              1.853              2.225
 Vibration     8          0.641              1.830              2.073
 Vibration     9          0.648              1.809              1.949
 Vibration    10          0.661              1.769              1.755
 Vibration    11          0.669              1.744              1.654
 Vibration    12          0.691              1.679              1.432
 Vibration    13          0.709              1.627              1.289
 Vibration    14          0.712              1.617              1.263
 Vibration    15          0.723              1.586              1.190
 Vibration    16          0.764              1.475              0.971
 Vibration    17          0.776              1.444              0.920
 Vibration    18          0.832              1.304              0.721
 Vibration    19          0.862              1.236              0.642
 Vibration    20          0.901              1.148              0.552
 Vibration    21          0.934              1.080              0.490
 Vibration    22          0.946              1.056              0.470
 Vibration    23          0.949              1.049              0.464

 Normal termination of Gaussian 09 at Mon Feb 26 14:26:26 2024.
