 Gaussian 09, Revision E.01,
 Gaussian 09:  ES64L-G09RevE.01 30-Nov-2015

 --------------------------------------
 # opt freq pbepbe/6-31+g(d,p) em=gd3bj
 --------------------------------------

 ----------
 [No Title]
 ----------
 Symbolic Z-matrix:
 Charge =  1 Multiplicity = 1

 SCF Done:  E(RPBE-PBE) =  -802.001032302     A.U. after   19 cycles
 SCF Done:  E(RPBE-PBE) =  -802.002345891     A.U. after   14 cycles
 SCF Done:  E(RPBE-PBE) =  -802.002378601     A.U. after   12 cycles
 SCF Done:  E(RPBE-PBE) =  -802.002382166     A.U. after   12 cycles
 SCF Done:  E(RPBE-PBE) =  -802.002383293     A.U. after   10 cycles
 SCF Done:  E(RPBE-PBE) =  -802.002384384     A.U. after   11 cycles
 SCF Done:  E(RPBE-PBE) =  -802.002384908     A.U. after   11 cycles
 SCF Done:  E(RPBE-PBE) =  -802.002384988     A.U. after   10 cycles
 Optimization completed.
    -- Stationary point found.
 Normal termination of Gaussian 09 at Thu Jun 20 11:55:01 2024.

 ----------------------------------------------------------------------
 #N Geom=AllCheck Guess=TCheck SCRF=Check GenChk RPBEPBE/6-31+G(d,p) Fr
 eq
 ----------------------------------------------------------------------

 Structure from the checkpoint file:  "pbeSAyanggd3.chk"
 ----------
 [No Title]
 ----------
 Charge =  1 Multiplicity = 1

                         Standard orientation:
 ---------------------------------------------------------------------
 Center     Atomic      Atomic             Coordinates (Angstroms)
 Number     Number       Type             X           Y           Z
 ---------------------------------------------------------------------
      1          6           0       -2.414040    0.208762   -0.000843
      2          6           0       -1.945204   -1.138718    0.008024
      3          6           0       -0.569455   -1.362499    0.012052
      4          6           0        0.357223   -0.273143    0.008278
      5          6           0       -0.123590    1.073258   -0.003988
      6          6           0       -1.490262    1.301655   -0.006599
      7          8           0       -3.727948    0.435758   -0.004907
      8          8           0       -2.916084   -2.075845    0.011455
      9          6           0       -2.510478   -3.455155    0.020946
     10          8           0       -2.125702    2.505389   -0.016655
     11          6           0       -1.321000    3.699540   -0.023001
     12          6           0        1.740732   -0.587391    0.013503
     13          6           0        2.811731    0.311027    0.020908
     14          6           0        4.136721   -0.119561   -0.000964
     15          8           0        5.105028    0.792383    0.129619
     16          8           0        4.436073   -1.414446   -0.161072
     17          1           0       -0.179523   -2.382009    0.019037
     18          1           0        0.573921    1.910978   -0.011342
     19          1           0       -3.868665    1.410664   -0.011831
     20          1           0       -3.443990   -4.030834    0.022574
     21          1           0       -1.924227   -3.697975   -0.882601
     22          1           0       -1.928095   -3.686553    0.929979
     23          1           0       -2.032975    4.533611   -0.029568
     24          1           0       -0.695756    3.747072    0.884815
     25          1           0       -0.692728    3.735472   -0.929256
     26          1           0        1.993740   -1.654234    0.010031
     27          1           0        2.673247    1.393073    0.045424
     28          1           0        5.984840    0.471375   -0.156324
     29          1           0        5.334999   -1.643186    0.151649
 ---------------------------------------------------------------------

 SCF Done:  E(RPBE-PBE) =  -802.002384988     A.U. after    1 cycles

 The electronic state is 1-A.
 Alpha  occ. eigenvalues --  -19.00459 -19.00395 -18.96005 -18.95804 -18.93846
 Alpha  occ. eigenvalues --  -10.20581 -10.11804 -10.10757 -10.10105 -10.08031
 Alpha  occ. eigenvalues --  -10.07611 -10.06464 -10.06198 -10.06103 -10.05057
 Alpha  occ. eigenvalues --  -10.04795  -1.20484  -1.14093  -1.13438  -1.11363
 Alpha  occ. eigenvalues --   -1.10100  -0.92433  -0.88727  -0.83815  -0.82541
 Alpha  occ. eigenvalues --   -0.78150  -0.77492  -0.74541  -0.72687  -0.71221
 Alpha  occ. eigenvalues --   -0.67600  -0.65031  -0.64278  -0.61722  -0.59809
 Alpha  occ. eigenvalues --   -0.58396  -0.57524  -0.57366  -0.55463  -0.55217
 Alpha  occ. eigenvalues --   -0.54509  -0.53316  -0.52477  -0.50483  -0.50040
 Alpha  occ. eigenvalues --   -0.49765  -0.48796  -0.48211  -0.47094  -0.46832
 Alpha  occ. eigenvalues --   -0.46055  -0.44699  -0.43344  -0.43254  -0.41967
 Alpha  occ. eigenvalues --   -0.41057  -0.38108  -0.33352  -0.31906
 Alpha virt. eigenvalues --   -0.26117  -0.17431  -0.16869  -0.15340  -0.12523
 Alpha virt. eigenvalues --   -0.11999  -0.11576  -0.10960  -0.10636  -0.08606
 Alpha virt. eigenvalues --   -0.08339  -0.07597  -0.07405  -0.06630  -0.06038

 Mulliken charges:
               1
     1  C   -0.389494
     2  C    0.495973
     3  C    0.053383
     4  C   -0.300215
     5  C   -0.208341
     6  C    0.341188
     7  O   -0.397308
     8  O   -0.269667
     9  C   -0.174862
    10  O   -0.369262
    11  C   -0.181721
    12  C    0.088797
    13  C   -0.638678
    14  C    0.787628
    15  O   -0.372726
    16  O   -0.413791
    17  H    0.154791
    18  H    0.138857
    19  H    0.418021
    20  H    0.199421
    21  H    0.179058
    22  H    0.178762
    23  H    0.198858
    24  H    0.184919
    25  H    0.184912
    26  H    0.177684
    27  H    0.171331
    28  H    0.380813
    29  H    0.381670
 Sum of Mulliken charges =   1.00000

 Dipole moment (field-independent basis, Debye):
    X=              8.9152    Y=              0.0865    Z=              0.0402  Tot=              8.9157
 Quadrupole moment (field-independent basis, Debye-Ang):
   XX=            -10.6801   YY=            -55.2358   ZZ=            -94.6120
   XY=            -10.5524   XZ=             -0.1573   YZ=             -1.5326

  Exact polarizability: 354.199  -6.701 177.675   0.263   0.221  83.607
 Approx polarizability:1198.314 -67.027 313.706   1.555   1.543 140.478

                      1                      2                      3
                      A                      A                      A
 Frequencies --     45.7171                57.2119                67.8596
 Red. masses --      6.3827                 5.5313                 3.2673
 Frc consts  --      0.0079                 0.0107                 0.0089
 IR Inten    --      0.3922                 1.2032                 7.7869

                      4                      5                      6
                      A                      A                      A
 Frequencies --     69.9731               114.6538               141.4828
 Red. masses --      5.0601                 3.7109                 5.5103
 Frc consts  --      0.0146                 0.0287                 0.0650
 IR Inten    --      0.9061                 0.0382                 0.9421

                      7                      8                      9
                      A                      A                      A
 Frequencies --    166.8103               177.2168               186.0483
 Red. masses --      3.8995                 3.0799                 1.5095
 Frc consts  --      0.0639                 0.0570                 0.0308
 IR Inten    --      2.4700                10.2277                 3.4430

                     10                     11                     12
                      A                      A                      A
 Frequencies --    191.5179               233.1749               238.3443
 Red. masses --      3.3433                 1.2891                 4.5533
 Frc consts  --      0.0723                 0.0413                 0.1524
 IR Inten    --      9.2946                 4.5578                 1.6460

                     13                     14                     15
                      A                      A                      A
 Frequencies --    256.9572               289.3785               299.2468
 Red. masses --      1.8683                 2.1685                 3.2188
 Frc consts  --      0.0727                 0.1070                 0.1698
 IR Inten    --     25.0750                73.6176                69.6877

                     16                     17                     18
                      A                      A                      A
 Frequencies --    334.4481               351.3670               366.9776
 Red. masses --      1.9334                 4.3118                 4.2988
 Frc consts  --      0.1274                 0.3136                 0.3411
 IR Inten    --    127.7538                 3.5198                 0.4701

                     19                     20                     21
                      A                      A                      A
 Frequencies --    394.6224               402.0685               484.2316
 Red. masses --      1.2564                 2.8276                 6.0062
 Frc consts  --      0.1153                 0.2693                 0.8298
 IR Inten    --    207.8158                30.4734                 3.6305

                     22                     23                     24
                      A                      A                      A
 Frequencies --    510.4823               513.8650               538.5391
 Red. masses --      6.5617                 4.8615                 2.7651
 Frc consts  --      1.0075                 0.7563                 0.4725
 IR Inten    --      6.7079                14.2164                14.2151

                     25                     26                     27
                      A                      A                      A
 Frequencies --    562.6057               569.8078               613.0083
 Red. masses --      3.6723                 3.7155                 1.2780
 Frc consts  --      0.6848                 0.7108                 0.2829
 IR Inten    --      9.8809                 4.2863                78.4082

                     28                     29                     30
                      A                      A                      A
 Frequencies --    644.7932               658.2463               692.3151
 Red. masses --      4.9139                 4.4108                 5.0309
 Frc consts  --      1.2037                 1.1260                 1.4207
 IR Inten    --      4.1577                 6.5862                42.5307

                     31                     32                     33
                      A                      A                      A
 Frequencies --    707.3435               785.5845               804.9755
 Red. masses --      9.4254                 1.5532                 1.3501
 Frc consts  --      2.7785                 0.5648                 0.5155
 IR Inten    --      0.1714                 6.6440                34.5148

                     34                     35                     36
                      A                      A                      A
 Frequencies --    813.9467               832.6168               909.3669
 Red. masses --      5.6194                 1.5710                 5.3765
 Frc consts  --      2.1935                 0.6417                 2.6196
 IR Inten    --      2.3779                16.0750                 5.5873

                     37                     38                     39
                      A                      A                      A
 Frequencies --    944.1221               953.8979               988.7229
 Red. masses --      1.3219                 4.5676                 4.2727
 Frc consts  --      0.6942                 2.4487                 2.4609
 IR Inten    --     48.9479               152.8307                14.0598

                     40                     41                     42
                      A                      A                      A
 Frequencies --   1032.2800              1113.8380              1119.6451
 Red. masses --      4.2760                 3.0298                 1.1658
 Frc consts  --      2.6846                 2.2146                 0.8610
 IR Inten    --      0.6942               241.9112               201.7811

                     43                     44                     45
                      A                      A                      A
 Frequencies --   1127.9634              1131.5347              1134.6632
 Red. masses --      1.2731                 1.2656                 1.4906
 Frc consts  --      0.9543                 0.9547                 1.1307
 IR Inten    --      0.6616                 0.4126               702.8801

                     46                     47                     48
                      A                      A                      A
 Frequencies --   1165.2159              1167.3621              1190.2249
 Red. masses --      1.4091                 1.3707                 1.6994
 Frc consts  --      1.1272                 1.1006                 1.4184
 IR Inten    --     10.1574                 6.6427                33.2843

                     49                     50                     51
                      A                      A                      A
 Frequencies --   1224.6076              1241.5274              1268.0699
 Red. masses --      1.8165                 1.7182                 1.6312
 Frc consts  --      1.6051                 1.5604                 1.5454
 IR Inten    --    248.0736                 2.6138               263.6603

                     52                     53                     54
                      A                      A                      A
 Frequencies --   1287.5211              1311.2096              1354.2453
 Red. masses --      1.5633                 3.2456                 2.9658
 Frc consts  --      1.5268                 3.2877                 3.2047
 IR Inten    --      5.0939                59.5682               264.9351

                     55                     56                     57
                      A                      A                      A
 Frequencies --   1395.7357              1418.5467              1425.3933
 Red. masses --      3.5554                 2.8761                 1.3564
 Frc consts  --      4.0808                 3.4099                 1.6236
 IR Inten    --    482.2369               183.9076                25.7735

                     58                     59                     60
                      A                      A                      A
 Frequencies --   1439.2010              1445.8128              1448.5964
 Red. masses --      1.5877                 1.0438                 1.0444
 Frc consts  --      1.9376                 1.2856                 1.2913
 IR Inten    --     86.5071                14.4711                14.6635

                     61                     62                     63
                      A                      A                      A
 Frequencies --   1450.9241              1451.9309              1493.6074
 Red. masses --      1.0557                 1.0933                 5.4123
 Frc consts  --      1.3094                 1.3580                 7.1138
 IR Inten    --     34.5136               120.3604               347.5972

                     64                     65                     66
                      A                      A                      A
 Frequencies --   1497.8711              1559.9978              1576.7643
 Red. masses --      5.0336                 4.7427                 5.5865
 Frc consts  --      6.6539                 6.8003                 8.1833
 IR Inten    --    424.8290                62.5576               247.2440

                     67                     68                     69
                      A                      A                      A
 Frequencies --   1601.3335              1635.6772              2966.1060
 Red. masses --      5.3755                 5.4281                 1.0336
 Frc consts  --      8.1214                 8.5565                 5.3578
 IR Inten    --    375.1143               896.9664                28.9865

                     70                     71                     72
                      A                      A                      A
 Frequencies --   2974.4865              3043.9810              3055.8274
 Red. masses --      1.0327                 1.1072                 1.1078
 Frc consts  --      5.3835                 6.0446                 6.0952
 IR Inten    --     22.0198                19.9065                15.5811

                     73                     74                     75
                      A                      A                      A
 Frequencies --   3112.6727              3120.8761              3123.5360
 Red. masses --      1.0893                 1.1009                 1.1021
 Frc consts  --      6.2179                 6.3176                 6.3354
 IR Inten    --      0.9457                 3.7083                 2.7735

                     76                     77                     78
                      A                      A                      A
 Frequencies --   3160.9479              3167.0538              3175.2065
 Red. masses --      1.0901                 1.0904                 1.0892
 Frc consts  --      6.4176                 6.4438                 6.4697
 IR Inten    --      1.3405                 2.1608                 0.3877

                     79                     80                     81
                      A                      A                      A
 Frequencies --   3575.2248              3664.0481              3673.3331
 Red. masses --      1.0648                 1.0674                 1.0658
 Frc consts  --      8.0192                 8.4434                 8.4728
 IR Inten    --    303.1520                87.5133               482.2587

 - Thermochemistry -
 -------------------
 Temperature   298.150 Kelvin.  Pressure   1.00000 Atm.
 Atom     1 has atomic number  6 and mass  12.00000

 Molecular mass:   225.07630 amu.
 Principal axes and moments of inertia in atomic units:
                           1         2         3
     Eigenvalues --  2559.360276652.976349183.19226
           X            0.99999   0.00366  -0.00002
           Y           -0.00366   0.99999  -0.00127
           Z            0.00002   0.00127   1.00000
 This molecule is an asymmetric top.
 Rotational symmetry number  1.
 Warning -- assumption of classical behavior for rotation
           may cause significant error
 Rotational temperatures (Kelvin)      0.03384     0.01302     0.00943
 Rotational constants (GHZ):           0.70515     0.27127     0.19653
 Zero-point vibrational energy     588790.9 (Joules/Mol)
                                  140.72440 (Kcal/Mol)
 Warning -- explicit consideration of  27 degrees of freedom as
           vibrations may cause significant error
 Vibrational temperatures:     65.78    82.32    97.63   100.68   164.96
          (Kelvin)            203.56   240.00   254.98   267.68   275.55
                              335.49   342.92   369.70   416.35   430.55
                              481.20   505.54   528.00   567.77   578.49
                              696.70   734.47   739.34   774.84   809.46
                              819.83   881.98   927.71   947.07   996.09
                             1017.71  1130.28  1158.18  1171.09  1197.95
                             1308.37  1358.38  1372.44  1422.55  1485.22
                             1602.56  1610.92  1622.89  1628.02  1632.53
                             1676.48  1679.57  1712.47  1761.93  1786.28
                             1824.47  1852.45  1886.54  1948.45  2008.15
                             2040.97  2050.82  2070.69  2080.20  2084.20
                             2087.55  2089.00  2148.97  2155.10  2244.49
                             2268.61  2303.96  2353.37  4267.56  4279.62
                             4379.60  4396.65  4478.44  4490.24  4494.07
                             4547.89  4556.68  4568.41  5143.94  5271.74
                             5285.10

 Zero-point correction=                           0.224259 (Hartree/Particle)
 Thermal correction to Energy=                    0.240832
 Thermal correction to Enthalpy=                  0.241776
 Thermal correction to Gibbs Free Energy=         0.180068
 Sum of electronic and zero-point Energies=           -801.778126
 Sum of electronic and thermal Energies=              -801.761553
 Sum of electronic and thermal Enthalpies=            -801.760609
 Sum of electronic and thermal Free Energies=         -801.822317

                     E (Thermal)             CV                S
                      KCal/Mol        Cal/Mol-Kelvin    Cal/Mol-Kelvin
 Total                  151.124             61.819            129.876
 Electronic               0.000              0.000              0.000
 Translational            0.889              2.981             42.136
 Rotational               0.889              2.981             33.413
 Vibrational            149.347             55.857             54.326
 Vibration     1          0.595              1.979              4.995
 Vibration     2          0.596              1.975              4.551
 Vibration     3          0.598              1.970              4.215
 Vibration     4          0.598              1.968              4.154
 Vibration     5          0.608              1.937              3.189
 Vibration     6          0.615              1.912              2.784
 Vibration     7          0.624              1.883              2.471
 Vibration     8          0.628              1.870              2.358
 Vibration     9          0.632              1.859              2.267
 Vibration    10          0.634              1.852              2.213
 Vibration    11          0.654              1.790              1.854
 Vibration    12          0.656              1.782              1.815
 Vibration    13          0.667              1.751              1.682
 Vibration    14          0.686              1.693              1.478
 Vibration    15          0.692              1.675              1.421
 Vibration    16          0.716              1.607              1.239
 Vibration    17          0.728              1.572              1.160
 Vibration    18          0.740              1.540              1.092
 Vibration    19          0.762              1.482              0.983
 Vibration    20          0.768              1.466              0.955
 Vibration    21          0.840              1.285              0.699
 Vibration    22          0.866              1.227              0.632
 Vibration    23          0.869              1.219              0.624
 Vibration    24          0.894              1.165              0.568
 Vibration    25          0.918              1.112              0.519
 Vibration    26          0.926              1.097              0.505
 Vibration    27          0.972              1.004              0.428

 Optimization completed.
    -- Stationary point found.
 Normal termination of Gaussian 09 at Thu Jun 20 11:57:36 2024.
