 Gaussian 09, Revision E.01,
 Gaussian 09:  ES64L-G09RevE.01 30-Nov-2015

 --------------------------------------
 # opt freq pbepbe/6-31+g(d,p) em=gd3bj
 --------------------------------------

 ----------
 [No Title]
 ----------
 Symbolic Z-matrix:
 Charge =  0 Multiplicity = 1

 SCF Done:  E(RPBE-PBE) =  -801.632936090     A.U. after   18 cycles
 SCF Done:  E(RPBE-PBE) =  -801.634351679     A.U. after   13 cycles
 SCF Done:  E(RPBE-PBE) =  -801.634362113     A.U. after   13 cycles
 SCF Done:  E(RPBE-PBE) =  -801.634440918     A.U. after   12 cycles
 SCF Done:  E(RPBE-PBE) =  -801.634442872     A.U. after   11 cycles
 SCF Done:  E(RPBE-PBE) =  -801.634442751     A.U. after   10 cycles
 SCF Done:  E(RPBE-PBE) =  -801.634443310     A.U. after   10 cycles
 Optimization completed.
    -- Stationary point found.
 Normal termination of Gaussian 09 at Wed Jun 19 14:35:46 2024.

 ----------------------------------------------------------------------
 #N Geom=AllCheck Guess=TCheck SCRF=Check GenChk RPBEPBE/6-31+G(d,p) Fr
 eq
 ----------------------------------------------------------------------

 Structure from the checkpoint file:  "pbeSAgd3.chk"
 ----------
 [No Title]
 ----------
 Charge =  0 Multiplicity = 1

                         Standard orientation:
 ---------------------------------------------------------------------
 Center     Atomic      Atomic             Coordinates (Angstroms)
 Number     Number       Type             X           Y           Z
 ---------------------------------------------------------------------
      1          6           0        2.288938   -0.118157    0.000426
      2          6           0        1.703646    1.181618    0.000284
      3          6           0        0.316924    1.344882    0.000122
      4          6           0       -0.537549    0.214679    0.000068
      5          6           0        0.040320   -1.066034    0.000127
      6          6           0        1.431682   -1.247120    0.000224
      7          8           0        3.662240   -0.126066    0.000580
      8          8           0        2.611529    2.203866    0.000379
      9          6           0        2.092807    3.534441    0.000257
     10          8           0        1.798396   -2.582205    0.000116
     11          6           0        3.154887   -3.014808   -0.000616
     12          6           0       -1.976816    0.436514   -0.000075
     13          6           0       -2.965367   -0.496932   -0.000233
     14          6           0       -4.373214   -0.077931   -0.000364
     15          8           0       -5.219020   -1.163588   -0.000680
     16          8           0       -4.802357    1.076045   -0.000461
     17          1           0       -0.124163    2.343021    0.000073
     18          1           0       -0.574420   -1.968704    0.000016
     19          1           0        3.987568   -1.041376    0.001949
     20          1           0        2.972484    4.191986    0.000339
     21          1           0        1.485348    3.730107   -0.902594
     22          1           0        1.485122    3.730185    0.902941
     23          1           0        3.110128   -4.113372   -0.001028
     24          1           0        3.695057   -2.704507   -0.917115
     25          1           0        3.695761   -2.705395    0.915810
     26          1           0       -2.304253    1.484728   -0.000062
     27          1           0       -2.768482   -1.572300   -0.000273
     28          1           0       -6.124008   -0.785689   -0.000857
 ---------------------------------------------------------------------

 SCF Done:  E(RPBE-PBE) =  -801.634443310     A.U. after    1 cycles

 The electronic state is 1-A.
 Alpha  occ. eigenvalues --  -18.83415 -18.83023 -18.82466 -18.82075 -18.76129
 Alpha  occ. eigenvalues --  -10.02025  -9.98586  -9.98383  -9.98268  -9.97531
 Alpha  occ. eigenvalues --   -9.96192  -9.92764  -9.92706  -9.91552  -9.91387
 Alpha  occ. eigenvalues --   -9.91315  -1.00682  -1.00292  -0.99328  -0.97894
 Alpha  occ. eigenvalues --   -0.91612  -0.79300  -0.73580  -0.71121  -0.68935
 Alpha  occ. eigenvalues --   -0.65161  -0.64170  -0.61141  -0.57332  -0.55383
 Alpha  occ. eigenvalues --   -0.51915  -0.50113  -0.48253  -0.47118  -0.45625
 Alpha  occ. eigenvalues --   -0.44541  -0.44073  -0.42587  -0.41902  -0.41465
 Alpha  occ. eigenvalues --   -0.40326  -0.38795  -0.38656  -0.37876  -0.36924
 Alpha  occ. eigenvalues --   -0.36008  -0.34974  -0.33738  -0.33170  -0.32280
 Alpha  occ. eigenvalues --   -0.31622  -0.30241  -0.29738  -0.29529  -0.27079
 Alpha  occ. eigenvalues --   -0.23980  -0.22739  -0.20344  -0.18932
 Alpha virt. eigenvalues --   -0.09643  -0.03518  -0.03189  -0.01466  -0.01013
 Alpha virt. eigenvalues --   -0.00716  -0.00429   0.00552   0.01615   0.02364
 Alpha virt. eigenvalues --    0.02415   0.02977   0.03559   0.04194   0.04345

 Mulliken charges:
               1
     1  C   -0.059981
     2  C    0.132414
     3  C    0.189899
     4  C   -0.225036
     5  C   -0.513564
     6  C    0.205105
     7  O   -0.469681
     8  O   -0.277462
     9  C   -0.180469
    10  O   -0.287824
    11  C   -0.244105
    12  C    0.286159
    13  C   -0.659464
    14  C    0.664592
    15  O   -0.414325
    16  O   -0.472693
    17  H    0.136795
    18  H    0.137065
    19  H    0.347613
    20  H    0.172023
    21  H    0.169337
    22  H    0.169334
    23  H    0.185940
    24  H    0.167284
    25  H    0.167083
    26  H    0.163730
    27  H    0.147177
    28  H    0.363054
 Sum of Mulliken charges =  -0.00000

 Dipole moment (field-independent basis, Debye):
    X=              4.2314    Y=             -1.6828    Z=              0.0008  Tot=              4.5537
 Quadrupole moment (field-independent basis, Debye-Ang):
   XX=            -92.7263   YY=            -80.1341   ZZ=            -96.8602
   XY=             -3.4793   XZ=              0.0051   YZ=              0.0011

  Exact polarizability: 285.205   1.612 182.132   0.022   0.005  88.407
 Approx polarizability: 567.585  16.325 342.241   0.054   0.003 148.129

 ******    1 imaginary frequencies (negative Signs) ******

                      1                      2                      3
                      A                      A                      A
 Frequencies --   -112.3053                32.4482                60.0900
 Red. masses --      2.8369                 7.0863                 6.8436
 Frc consts  --      0.0211                 0.0044                 0.0146
 IR Inten    --      0.8066                 1.4425                 0.0475

                      4                      5                      6
                      A                      A                      A
 Frequencies --     68.4980                78.4518               128.0092
 Red. masses --      6.0181                 3.5892                 3.8466
 Frc consts  --      0.0166                 0.0130                 0.0371
 IR Inten    --      0.1490                 1.7844                 3.6172

                      7                      8                      9
                      A                      A                      A
 Frequencies --    148.1203               183.1213               193.3293
 Red. masses --      3.2119                 4.3933                 1.7472
 Frc consts  --      0.0415                 0.0868                 0.0385
 IR Inten    --      5.7945                 4.4843                27.8124

                     10                     11                     12
                      A                      A                      A
 Frequencies --    197.5888               218.4848               240.8026
 Red. masses --      5.6024                 1.6338                 2.0485
 Frc consts  --      0.1289                 0.0459                 0.0700
 IR Inten    --      0.7498                25.8221                 1.1453

                     13                     14                     15
                      A                      A                      A
 Frequencies --    252.4829               289.7578               309.0638
 Red. masses --      4.7299                 1.7717                 1.0660
 Frc consts  --      0.1776                 0.0876                 0.0600
 IR Inten    --      0.0895                 0.4358                15.8231

                     16                     17                     18
                      A                      A                      A
 Frequencies --    318.1398               327.5080               377.6375
 Red. masses --      4.6823                 5.4294                 4.3727
 Frc consts  --      0.2792                 0.3431                 0.3674
 IR Inten    --      4.1052                 0.4212                 1.2296

                     19                     20                     21
                      A                      A                      A
 Frequencies --    397.9805               455.5669               486.9684
 Red. masses --      4.3556                 6.1198                 6.0109
 Frc consts  --      0.4065                 0.7483                 0.8398
 IR Inten    --      2.3330                24.0624                 7.5643

                     22                     23                     24
                      A                      A                      A
 Frequencies --    521.4374               545.3953               553.9598
 Red. masses --      5.2779                 3.9781                 2.0756
 Frc consts  --      0.8455                 0.6972                 0.3753
 IR Inten    --      5.5238                 1.2221                15.6420

                     25                     26                     27
                      A                      A                      A
 Frequencies --    563.9788               600.1690               637.8660
 Red. masses --      5.4951                 1.6517                 4.7816
 Frc consts  --      1.0298                 0.3505                 1.1463
 IR Inten    --     59.4483                79.2434                 8.6406

                     28                     29                     30
                      A                      A                      A
 Frequencies --    687.4594               697.1690               718.5895
 Red. masses --      6.1481                 4.5036                 3.7201
 Frc consts  --      1.7119                 1.2897                 1.1318
 IR Inten    --      0.0021                11.9348                14.9572

                     31                     32                     33
                      A                      A                      A
 Frequencies --    789.4976               790.5247               812.9125
 Red. masses --      5.8341                 1.5108                 1.4587
 Frc consts  --      2.1425                 0.5563                 0.5679
 IR Inten    --      5.5579                32.4731                16.3619

                     34                     35                     36
                      A                      A                      A
 Frequencies --    844.1707               903.6963               950.5488
 Red. masses --      2.0431                 5.1906                 3.9626
 Frc consts  --      0.8578                 2.4975                 2.1095
 IR Inten    --      9.0797                 9.5894                 9.7403

                     37                     38                     39
                      A                      A                      A
 Frequencies --    975.3329               979.5050              1056.8991
 Red. masses --      4.7069                 1.1604                 3.5073
 Frc consts  --      2.6381                 0.6559                 2.3083
 IR Inten    --     23.1791                30.7615                16.6072

                     40                     41                     42
                      A                      A                      A
 Frequencies --   1089.1868              1093.8427              1115.0441
 Red. masses --      2.6728                 2.4142                 1.2562
 Frc consts  --      1.8682                 1.7019                 0.9202
 IR Inten    --    149.3464               736.5365                 0.7607

                     43                     44                     45
                      A                      A                      A
 Frequencies --   1130.1320              1148.1382              1166.0303
 Red. masses --      1.2780                 1.7082                 1.4110
 Frc consts  --      0.9617                 1.3267                 1.1303
 IR Inten    --      0.5850                 1.6105                15.8408

                     46                     47                     48
                      A                      A                      A
 Frequencies --   1171.0571              1207.4754              1218.7706
 Red. masses --      1.4927                 2.3692                 1.6617
 Frc consts  --      1.2061                 2.0352                 1.4543
 IR Inten    --      0.2415               220.9443                92.7209

                     49                     50                     51
                      A                      A                      A
 Frequencies --   1230.8358              1250.9316              1292.9978
 Red. masses --      1.7116                 1.9158                 1.4514
 Frc consts  --      1.5277                 1.7663                 1.4296
 IR Inten    --     84.0206               119.6613                82.6837

                     52                     53                     54
                      A                      A                      A
 Frequencies --   1316.4464              1360.0632              1389.6949
 Red. masses --      2.3783                 3.8934                 3.0691
 Frc consts  --      2.4284                 4.2433                 3.4922
 IR Inten    --    174.1671                65.3011               183.7329

                     55                     56                     57
                      A                      A                      A
 Frequencies --   1411.0580              1432.1201              1442.5238
 Red. masses --      1.9746                 1.4120                 2.0691
 Frc consts  --      2.3165                 1.7062                 2.5367
 IR Inten    --     32.2507                54.6565                68.2933

                     58                     59                     60
                      A                      A                      A
 Frequencies --   1445.5524              1458.4671              1462.3031
 Red. masses --      1.0446                 1.0930                 1.0490
 Frc consts  --      1.2861                 1.3698                 1.3216
 IR Inten    --      9.8215                56.2745                 7.6983

                     61                     62                     63
                      A                      A                      A
 Frequencies --   1467.2406              1496.4705              1580.6419
 Red. masses --      1.0548                 4.6939                 6.5584
 Frc consts  --      1.3379                 6.1933                 9.6541
 IR Inten    --     40.2355               314.8909               187.8250

                     64                     65                     66
                      A                      A                      A
 Frequencies --   1597.4148              1638.1695              1722.0896
 Red. masses --      6.5492                 6.3000                 8.5540
 Frc consts  --      9.8464                 9.9612                14.9461
 IR Inten    --     89.2279               374.5145               314.7709

                     67                     68                     69
                      A                      A                      A
 Frequencies --   2916.0191              2948.9331              2987.3332
 Red. masses --      1.0367                 1.0341                 1.1073
 Frc consts  --      5.1938                 5.2981                 5.8224
 IR Inten    --     61.8668                56.6767                30.0188

                     70                     71                     72
                      A                      A                      A
 Frequencies --   3017.1358              3075.7511              3090.8744
 Red. masses --      1.1059                 1.0939                 1.0885
 Frc consts  --      5.9312                 6.0972                 6.1269
 IR Inten    --     33.1209                14.4202                 1.7950

                     73                     74                     75
                      A                      A                      A
 Frequencies --   3095.8902              3139.0009              3151.4930
 Red. masses --      1.0995                 1.0903                 1.0895
 Frc consts  --      6.2090                 6.3298                 6.3755
 IR Inten    --     17.3520                 5.3057                 2.0904

                     76                     77                     78
                      A                      A                      A
 Frequencies --   3156.7650              3647.9103              3756.2462
 Red. masses --      1.0896                 1.0639                 1.0651
 Frc consts  --      6.3973                 8.3417                 8.8545
 IR Inten    --      2.9965                89.2291               205.4519

 - Thermochemistry -
 -------------------
 Temperature   298.150 Kelvin.  Pressure   1.00000 Atm.
 Atom     1 has atomic number  6 and mass  12.00000

 Molecular mass:   224.06847 amu.
 Principal axes and moments of inertia in atomic units:
                           1         2         3
     Eigenvalues --  2347.158507076.855919400.19042
           X            0.99999  -0.00508  -0.00009
           Y            0.00508   0.99999  -0.00009
           Z            0.00009   0.00008   1.00000
 This molecule is an asymmetric top.
 Rotational symmetry number  1.
 Warning -- assumption of classical behavior for rotation
           may cause significant error
 Rotational temperatures (Kelvin)      0.03690     0.01224     0.00921
 Rotational constants (GHZ):           0.76890     0.25502     0.19199
    1 imaginary frequencies ignored.
 Zero-point vibrational energy     554536.2 (Joules/Mol)
                                  132.53733 (Kcal/Mol)
 Warning -- explicit consideration of  25 degrees of freedom as
           vibrations may cause significant error
 Vibrational temperatures:     46.69    86.46    98.55   112.87   184.18
          (Kelvin)            213.11   263.47   278.16   284.29   314.35
                              346.46   363.27   416.90   444.67   457.73
                              471.21   543.34   572.60   655.46   700.64
                              750.23   784.70   797.02   811.44   863.51
                              917.75   989.10  1003.07  1033.89  1135.91
                             1137.39  1169.60  1214.57  1300.22  1367.63
                             1403.28  1409.29  1520.64  1567.09  1573.79
                             1604.30  1626.01  1651.91  1677.66  1684.89
                             1737.29  1753.54  1770.90  1799.81  1860.33
                             1894.07  1956.83  1999.46  2030.20  2060.50
                             2075.47  2079.82  2098.41  2103.93  2111.03
                             2153.08  2274.19  2298.32  2356.96  2477.70
                             4195.50  4242.85  4298.10  4340.98  4425.31
                             4447.07  4454.29  4516.32  4534.29  4541.88
                             5248.52  5404.39

 Zero-point correction=                           0.211212 (Hartree/Particle)
 Thermal correction to Energy=                    0.226867
 Thermal correction to Enthalpy=                  0.227811
 Thermal correction to Gibbs Free Energy=         0.167665
 Sum of electronic and zero-point Energies=           -801.423232
 Sum of electronic and thermal Energies=              -801.407577
 Sum of electronic and thermal Enthalpies=            -801.406632
 Sum of electronic and thermal Free Energies=         -801.466778

                     E (Thermal)             CV                S
                      KCal/Mol        Cal/Mol-Kelvin    Cal/Mol-Kelvin
 Total                  142.361             58.439            126.587
 Electronic               0.000              0.000              0.000
 Translational            0.889              2.981             42.123
 Rotational               0.889              2.981             33.412
 Vibrational            140.584             52.477             51.052
 Vibration     1          0.594              1.983              5.674
 Vibration     2          0.597              1.973              4.454
 Vibration     3          0.598              1.969              4.196
 Vibration     4          0.600              1.964              3.929
 Vibration     5          0.611              1.925              2.976
 Vibration     6          0.617              1.905              2.696
 Vibration     7          0.631              1.863              2.296
 Vibration     8          0.635              1.849              2.196
 Vibration     9          0.637              1.843              2.155
 Vibration    10          0.646              1.813              1.972
 Vibration    11          0.658              1.778              1.797
 Vibration    12          0.664              1.759              1.713
 Vibration    13          0.686              1.693              1.475
 Vibration    14          0.698              1.656              1.367
 Vibration    15          0.705              1.639              1.320
 Vibration    16          0.711              1.621              1.272
 Vibration    17          0.748              1.518              1.049
 Vibration    18          0.764              1.474              0.970
 Vibration    19          0.814              1.349              0.779
 Vibration    20          0.843              1.279              0.692
 Vibration    21          0.876              1.203              0.607
 Vibration    22          0.901              1.150              0.554
 Vibration    23          0.909              1.131              0.536
 Vibration    24          0.920              1.109              0.516
 Vibration    25          0.958              1.031              0.449

 Optimization completed.
    -- Stationary point found.
 Normal termination of Gaussian 09 at Wed Jun 19 14:37:56 2024.
