 Gaussian 09, Revision E.01,
 Gaussian 09:  ES64L-G09RevE.01 30-Nov-2015

 ------------------------
 # opt freq m062x/cc-pvtz
 ------------------------

 ----------
 [No Title]
 ----------
 Symbolic Z-matrix:
 Charge =  1 Multiplicity = 1

 SCF Done:  E(RM062X) =  -476.529850917     A.U. after   15 cycles
 SCF Done:  E(RM062X) =  -476.530306843     A.U. after   11 cycles
 SCF Done:  E(RM062X) =  -476.530075754     A.U. after   12 cycles
 SCF Done:  E(RM062X) =  -476.530351362     A.U. after    9 cycles
 SCF Done:  E(RM062X) =  -476.530364949     A.U. after    8 cycles
 Optimization completed.
    -- Stationary point found.
 Normal termination of Gaussian 09 at Thu Dec 19 23:04:12 2024.

 -------------------------------------------------------------------
 #N Geom=AllCheck Guess=TCheck SCRF=Check GenChk RM062X/CC-pVTZ Freq
 -------------------------------------------------------------------

 Structure from the checkpoint file:  "ccpvTZAnthranilicyang.chk"
 ----------
 [No Title]
 ----------
 Charge =  1 Multiplicity = 1

                         Standard orientation:
 ---------------------------------------------------------------------
 Center     Atomic      Atomic             Coordinates (Angstroms)
 Number     Number       Type             X           Y           Z
 ---------------------------------------------------------------------
      1          6           0       -1.922351   -1.468559    0.000012
      2          6           0       -2.603822   -0.260972   -0.000014
      3          6           0       -1.903528    0.939556   -0.000022
      4          6           0       -0.527282    0.903617   -0.000001
      5          6           0        0.182524   -0.297548   -0.000005
      6          6           0       -0.536359   -1.488672    0.000016
      7          6           0        1.667835   -0.295782   -0.000066
      8          8           0        2.206661   -1.492163    0.000134
      9          7           0        0.232444    2.168714    0.000053
     10          8           0        2.333405    0.727869   -0.000167
     11          1           0       -2.471988   -2.398666    0.000018
     12          1           0       -3.684391   -0.245630   -0.000018
     13          1           0       -2.430590    1.885086   -0.000023
     14          1           0        0.001852   -2.425234    0.000015
     15          1           0        3.173816   -1.413178    0.000138
     16          1           0        0.028715    2.731422    0.827281
     17          1           0        1.263933    1.878340    0.000212
     18          1           0        0.028912    2.731382   -0.827252
 ---------------------------------------------------------------------

 SCF Done:  E(RM062X) =  -476.530364949     A.U. after    1 cycles

 The electronic state is 1-A.
 Alpha  occ. eigenvalues --  -19.84008 -19.79793 -15.03290 -10.86158 -10.78294
 Alpha  occ. eigenvalues --  -10.73966 -10.72416 -10.71806 -10.71636 -10.70760
 Alpha  occ. eigenvalues --   -1.41920  -1.32680  -1.28358  -1.14325  -1.04617
 Alpha  occ. eigenvalues --   -1.02081  -0.92765  -0.89285  -0.86092  -0.83085
 Alpha  occ. eigenvalues --   -0.81672  -0.78816  -0.75814  -0.75160  -0.71687
 Alpha  occ. eigenvalues --   -0.70026  -0.68402  -0.67610  -0.64264  -0.61783
 Alpha  occ. eigenvalues --   -0.60345  -0.58569  -0.57403  -0.53893  -0.48872
 Alpha  occ. eigenvalues --   -0.48725
 Alpha virt. eigenvalues --   -0.18994  -0.15504  -0.11979  -0.07423  -0.06540
 Alpha virt. eigenvalues --   -0.05526  -0.05354  -0.02615  -0.00244   0.00851
 Alpha virt. eigenvalues --    0.02747   0.04286   0.04796   0.07188   0.07366

 Mulliken charges:
               1
     1  C   -0.085152
     2  C   -0.053639
     3  C   -0.122081
     4  C    0.133353
     5  C   -0.091613
     6  C   -0.039291
     7  C    0.385877
     8  O   -0.259418
     9  N   -0.176008
    10  O   -0.345311
    11  H    0.144343
    12  H    0.147630
    13  H    0.139351
    14  H    0.168125
    15  H    0.301385
    16  H    0.250518
    17  H    0.251402
    18  H    0.250530
 Sum of Mulliken charges =   1.00000

 Dipole moment (field-independent basis, Debye):
    X=             -1.0040    Y=              4.1488    Z=              0.0004  Tot=              4.2686
 Quadrupole moment (field-independent basis, Debye-Ang):
   XX=            -35.7243   YY=            -28.8071   ZZ=            -56.2506
   XY=             -3.6025   XZ=              0.0010   YZ=              0.0008

  Exact polarizability: 112.340   1.109  99.557  -0.000  -0.001  45.567
 Approx polarizability: 139.176   1.692 133.550  -0.000  -0.002  64.547

                      1                      2                      3
                      A                      A                      A
 Frequencies --     91.8143               135.8585               237.5082
 Red. masses --      6.2213                 3.7256                 3.2382
 Frc consts  --      0.0309                 0.0405                 0.1076
 IR Inten    --      6.2923                 1.5216                19.9995

                      4                      5                      6
                      A                      A                      A
 Frequencies --    278.2807               324.9654               375.5556
 Red. masses --      5.2352                 1.1647                 3.7623
 Frc consts  --      0.2389                 0.0725                 0.3126
 IR Inten    --     10.7028                 0.1144                70.8522

                      7                      8                      9
                      A                      A                      A
 Frequencies --    429.4806               433.2546               495.9822
 Red. masses --      2.9993                 8.0452                 3.1521
 Frc consts  --      0.3260                 0.8898                 0.4569
 IR Inten    --      9.6802                 2.9732                 4.9893

                     10                     11                     12
                      A                      A                      A
 Frequencies --    504.8950               568.0577               629.6401
 Red. masses --      4.6418                 6.2890                 1.2496
 Frc consts  --      0.6972                 1.1957                 0.2919
 IR Inten    --      4.4704                 2.8500                71.9252

                     13                     14                     15
                      A                      A                      A
 Frequencies --    671.1753               719.6787               768.1099
 Red. masses --      5.4894                 3.1148                 3.9114
 Frc consts  --      1.4570                 0.9505                 1.3597
 IR Inten    --     80.5764                40.5713                56.8204

                     16                     17                     18
                      A                      A                      A
 Frequencies --    780.1515               833.4054               839.3209
 Red. masses --      1.4803                 2.8185                 5.1562
 Frc consts  --      0.5308                 1.1534                 2.1401
 IR Inten    --     90.0498                 0.0166                17.6928

                     19                     20                     21
                      A                      A                      A
 Frequencies --    922.9925              1019.6817              1060.7356
 Red. masses --      1.3956                 1.3778                 1.3637
 Frc consts  --      0.7005                 0.8441                 0.9040
 IR Inten    --      0.0574                 0.3526                 0.0027

                     22                     23                     24
                      A                      A                      A
 Frequencies --   1071.5108              1088.6147              1129.3192
 Red. masses --      2.0723                 1.9864                 1.3464
 Frc consts  --      1.4018                 1.3870                 1.0117
 IR Inten    --     25.0398                16.2965                 7.5933

                     25                     26                     27
                      A                      A                      A
 Frequencies --   1130.9683              1191.3795              1201.2075
 Red. masses --      2.3010                 1.6038                 1.1696
 Frc consts  --      1.7340                 1.3412                 0.9943
 IR Inten    --     52.4210                 1.2590                 0.9593

                     28                     29                     30
                      A                      A                      A
 Frequencies --   1222.5836              1232.3660              1329.1507
 Red. masses --      1.9577                 2.2239                 1.5312
 Frc consts  --      1.7241                 1.9900                 1.5938
 IR Inten    --    193.0619                32.2029                 3.1837

                     31                     32                     33
                      A                      A                      A
 Frequencies --   1361.0716              1444.0035              1488.5457
 Red. masses --      4.7957                 1.7755                 1.9722
 Frc consts  --      5.2343                 2.1813                 2.5748
 IR Inten    --     24.6348               325.2372               222.4252

                     34                     35                     36
                      A                      A                      A
 Frequencies --   1508.9042              1552.9669              1614.2769
 Red. masses --      2.4197                 2.8554                 1.1909
 Frc consts  --      3.2460                 4.0574                 1.8285
 IR Inten    --     13.2717                64.8039                17.0725

                     37                     38                     39
                      A                      A                      A
 Frequencies --   1657.2671              1665.2765              1702.2393
 Red. masses --      1.0433                 5.1159                 5.1525
 Frc consts  --      1.6883                 8.3588                 8.7965
 IR Inten    --     35.9608                 2.9649                56.5469

                     40                     41                     42
                      A                      A                      A
 Frequencies --   1786.3635              2636.9508              3188.2990
 Red. masses --      5.8472                 1.0958                 1.0925
 Frc consts  --     10.9936                 4.4895                 6.5433
 IR Inten    --    287.1137               697.4526                 0.9196

                     43                     44                     45
                      A                      A                      A
 Frequencies --   3210.3030              3220.4139              3230.0877
 Red. masses --      1.0918                 1.0941                 1.0974
 Frc consts  --      6.6294                 6.6854                 6.7463
 IR Inten    --      0.5519                 3.8819                 5.2152

                     46                     47                     48
                      A                      A                      A
 Frequencies --   3449.8724              3510.0282              3770.4708
 Red. masses --      1.0518                 1.0938                 1.0650
 Frc consts  --      7.3756                 7.9396                 8.9202
 IR Inten    --    114.3026               112.5670               252.2553

 - Thermochemistry -
 -------------------
 Temperature   298.150 Kelvin.  Pressure   1.00000 Atm.
 Atom     1 has atomic number  6 and mass  12.00000

 Molecular mass:   138.05550 amu.
 Principal axes and moments of inertia in atomic units:
                           1         2         3
     Eigenvalues --   796.504481479.500442266.15271
           X            1.00000   0.00106   0.00000
           Y           -0.00106   1.00000   0.00002
           Z           -0.00000  -0.00002   1.00000
 This molecule is an asymmetric top.
 Rotational symmetry number  1.
 Warning -- assumption of classical behavior for rotation
           may cause significant error
 Rotational temperatures (Kelvin)      0.10874     0.05854     0.03822
 Rotational constants (GHZ):           2.26583     1.21983     0.79639
 Zero-point vibrational energy     387081.6 (Joules/Mol)
                                   92.51472 (Kcal/Mol)
 Warning -- explicit consideration of  11 degrees of freedom as
           vibrations may cause significant error
 Vibrational temperatures:    132.10   195.47   341.72   400.38   467.55
          (Kelvin)            540.34   617.93   623.36   713.61   726.43
                              817.31   905.91   965.67  1035.46  1105.14
                             1122.46  1199.08  1207.59  1327.98  1467.09
                             1526.16  1541.66  1566.27  1624.84  1627.21
                             1714.13  1728.27  1759.02  1773.10  1912.35
                             1958.28  2077.60  2141.68  2170.97  2234.37
                             2322.58  2384.43  2395.96  2449.14  2570.18
                             3793.98  4587.25  4618.90  4633.45  4647.37
                             4963.59  5050.14  5424.86

 Zero-point correction=                           0.147432 (Hartree/Particle)
 Thermal correction to Energy=                    0.155554
 Thermal correction to Enthalpy=                  0.156498
 Thermal correction to Gibbs Free Energy=         0.114484
 Sum of electronic and zero-point Energies=           -476.382933
 Sum of electronic and thermal Energies=              -476.374811
 Sum of electronic and thermal Enthalpies=            -476.373867
 Sum of electronic and thermal Free Energies=         -476.415881

                     E (Thermal)             CV                S
                      KCal/Mol        Cal/Mol-Kelvin    Cal/Mol-Kelvin
 Total                   97.612             31.896             88.426
 Electronic               0.000              0.000              0.000
 Translational            0.889              2.981             40.679
 Rotational               0.889              2.981             29.370
 Vibrational             95.834             25.934             18.378
 Vibration     1          0.602              1.955              3.621
 Vibration     2          0.614              1.918              2.861
 Vibration     3          0.656              1.783              1.821
 Vibration     4          0.679              1.714              1.544
 Vibration     5          0.709              1.626              1.285
 Vibration     6          0.746              1.522              1.057
 Vibration     7          0.791              1.406              0.860
 Vibration     8          0.794              1.398              0.848
 Vibration     9          0.852              1.259              0.668
 Vibration    10          0.860              1.239              0.646
 Vibration    11          0.924              1.100              0.508

 Normal termination of Gaussian 09 at Thu Dec 19 23:09:31 2024.
