 Gaussian 09, Revision E.01,
 Gaussian 09:  ES64L-G09RevE.01 30-Nov-2015

 ------------------------
 # opt freq m062x/cc-pvtz
 ------------------------

 ----------
 [No Title]
 ----------
 Symbolic Z-matrix:
 Charge =  0 Multiplicity = 1

 SCF Done:  E(RM062X) =  -476.179316485     A.U. after   15 cycles
 SCF Done:  E(RM062X) =  -476.179830663     A.U. after   11 cycles
 SCF Done:  E(RM062X) =  -476.179839032     A.U. after   10 cycles
 SCF Done:  E(RM062X) =  -476.179844472     A.U. after    9 cycles
 SCF Done:  E(RM062X) =  -476.179844720     A.U. after    8 cycles
 SCF Done:  E(RM062X) =  -476.179844905     A.U. after    7 cycles
 Optimization completed.
    -- Stationary point found.
 Normal termination of Gaussian 09 at Thu Dec 19 22:34:08 2024.

 -------------------------------------------------------------------
 #N Geom=AllCheck Guess=TCheck SCRF=Check GenChk RM062X/CC-pVTZ Freq
 -------------------------------------------------------------------

 Structure from the checkpoint file:  "ccpvTZAnthranilic.chk"
 ----------
 [No Title]
 ----------
 Charge =  0 Multiplicity = 1

                         Standard orientation:
 ---------------------------------------------------------------------
 Center     Atomic      Atomic             Coordinates (Angstroms)
 Number     Number       Type             X           Y           Z
 ---------------------------------------------------------------------
      1          6           0       -1.842439   -1.517604    0.000011
      2          6           0       -2.568807   -0.324404   -0.000043
      3          6           0       -1.932188    0.893178   -0.000034
      4          6           0       -0.526691    0.981182    0.000029
      5          6           0        0.208046   -0.226888    0.000084
      6          6           0       -0.468439   -1.452631    0.000069
      7          6           0        1.674352   -0.197048    0.000150
      8          8           0        2.241903   -1.419247   -0.000104
      9          7           0        0.068719    2.197949    0.000051
     10          8           0        2.366831    0.798919   -0.000110
     11          1           0       -2.349085   -2.471095    0.000004
     12          1           0       -3.650674   -0.352374   -0.000092
     13          1           0       -2.507150    1.810482   -0.000073
     14          1           0        0.119851   -2.358442    0.000110
     15          1           0        3.196243   -1.271686   -0.000261
     16          1           0        1.072478    2.259677    0.000082
     17          1           0       -0.495570    3.025701   -0.000022
 ---------------------------------------------------------------------

 SCF Done:  E(RM062X) =  -476.179844905     A.U. after    1 cycles

 The electronic state is 1-A.
 Alpha  occ. eigenvalues --  -19.66872 -19.61541 -14.75430 -10.67903 -10.60244
 Alpha  occ. eigenvalues --  -10.55192 -10.55133 -10.54932 -10.54148 -10.53319
 Alpha  occ. eigenvalues --   -1.23997  -1.14114  -1.04280  -0.95331  -0.87057
 Alpha  occ. eigenvalues --   -0.83216  -0.75080  -0.70783  -0.67685  -0.61554
 Alpha  occ. eigenvalues --   -0.59968  -0.58507  -0.57690  -0.54212  -0.53148
 Alpha  occ. eigenvalues --   -0.50872  -0.49769  -0.47645  -0.46765  -0.43597
 Alpha  occ. eigenvalues --   -0.41437  -0.40291  -0.38817  -0.35877  -0.31877
 Alpha  occ. eigenvalues --   -0.26135
 Alpha virt. eigenvalues --   -0.01318   0.03816   0.06914   0.07564   0.08748
 Alpha virt. eigenvalues --    0.09913   0.11065   0.13556   0.14653   0.16708
 Alpha virt. eigenvalues --    0.22133   0.22963   0.24788   0.25399   0.27500

 Mulliken charges:
               1
     1  C   -0.163826
     2  C   -0.073993
     3  C   -0.191909
     4  C    0.279791
     5  C   -0.124587
     6  C   -0.066592
     7  C    0.362672
     8  O   -0.320963
     9  N   -0.420766
    10  O   -0.401863
    11  H    0.097860
    12  H    0.104140
    13  H    0.089800
    14  H    0.133512
    15  H    0.266015
    16  H    0.233927
    17  H    0.196783
 Sum of Mulliken charges =  -0.00000

 Dipole moment (field-independent basis, Debye):
    X=             -0.9087    Y=              0.5469    Z=              0.0001  Tot=              1.0606
 Quadrupole moment (field-independent basis, Debye-Ang):
   XX=            -51.3166   YY=            -49.8224   ZZ=            -61.6122
   XY=             -5.1469   XZ=              0.0004   YZ=              0.0001

  Exact polarizability: 119.867   3.593 109.156   0.000  -0.000  46.153
 Approx polarizability: 146.230   8.088 147.469   0.001  -0.002  65.262

 ******    1 imaginary frequencies (negative Signs) ******

                      1                      2                      3
                      A                      A                      A
 Frequencies --   -174.7123                86.8370               157.6187
 Red. masses --      1.5220                 6.3603                 2.8411
 Frc consts  --      0.0274                 0.0283                 0.0416
 IR Inten    --    141.6802                 6.6396                16.4528

                      4                      5                      6
                      A                      A                      A
 Frequencies --    239.5748               264.1550               376.8773
 Red. masses --      4.2674                 5.9156                 5.3145
 Frc consts  --      0.1443                 0.2432                 0.4447
 IR Inten    --      5.7881                 1.2321                 6.4819

                      7                      8                      9
                      A                      A                      A
 Frequencies --    418.9861               435.6485               517.4305
 Red. masses --      5.6850                 3.0907                 4.1603
 Frc consts  --      0.5880                 0.3456                 0.6563
 IR Inten    --      0.9157                 5.4631                 4.4730

                     10                     11                     12
                      A                      A                      A
 Frequencies --    546.0037               574.0127               578.3318
 Red. masses --      2.6955                 6.8871                 1.0569
 Frc consts  --      0.4735                 1.3370                 0.2083
 IR Inten    --     11.8773                 1.4060                32.2019

                     13                     14                     15
                      A                      A                      A
 Frequencies --    591.9116               661.6679               732.1794
 Red. masses --      1.1968                 5.4369                 3.1319
 Frc consts  --      0.2471                 1.4024                 0.9892
 IR Inten    --     60.9691                50.7943                41.7608

                     16                     17                     18
                      A                      A                      A
 Frequencies --    768.4409               778.0826               830.0317
 Red. masses --      4.0534                 1.4803                 3.6782
 Frc consts  --      1.4102                 0.5280                 1.4931
 IR Inten    --     21.7321                58.2966                 5.3035

                     19                     20                     21
                      A                      A                      A
 Frequencies --    873.2602               886.1252              1006.3157
 Red. masses --      5.2846                 1.6716                 1.3587
 Frc consts  --      2.3744                 0.7734                 0.8107
 IR Inten    --      8.1435                 5.1034                 0.8965

                     22                     23                     24
                      A                      A                      A
 Frequencies --   1018.6827              1045.7109              1090.1687
 Red. masses --      1.3151                 1.9040                 1.8626
 Frc consts  --      0.8040                 1.2267                 1.3042
 IR Inten    --      0.0066                 6.5991                11.4971

                     25                     26                     27
                      A                      A                      A
 Frequencies --   1114.4245              1184.7548              1189.3177
 Red. masses --      3.9809                 1.2219                 1.3158
 Frc consts  --      2.9130                 1.0105                 1.0966
 IR Inten    --     91.9894               149.8383                 9.4601

                     28                     29                     30
                      A                      A                      A
 Frequencies --   1218.9546              1321.4205              1339.7793
 Red. masses --      1.6446                 2.0759                 2.0064
 Frc consts  --      1.4397                 2.1357                 2.1219
 IR Inten    --    258.3145                 5.0278                39.1634

                     31                     32                     33
                      A                      A                      A
 Frequencies --   1383.1611              1420.1861              1507.3659
 Red. masses --      2.7145                 4.2275                 2.7228
 Frc consts  --      3.0598                 5.0238                 3.6450
 IR Inten    --     41.5320               111.0667                16.7468

                     34                     35                     36
                      A                      A                      A
 Frequencies --   1536.6716              1613.0045              1645.9332
 Red. masses --      2.3425                 1.7048                 3.7569
 Frc consts  --      3.2590                 2.6134                 5.9965
 IR Inten    --     32.4650               169.9828               148.3534

                     37                     38                     39
                      A                      A                      A
 Frequencies --   1696.0793              1810.7206              3180.3572
 Red. masses --      5.6875                 8.4182                 1.0867
 Frc consts  --      9.6397                16.2619                 6.4759
 IR Inten    --     97.0412               424.7997                 3.9309

                     40                     41                     42
                      A                      A                      A
 Frequencies --   3196.5049              3208.4437              3239.4138
 Red. masses --      1.0933                 1.0946                 1.0934
 Frc consts  --      6.5816                 6.6388                 6.7600
 IR Inten    --     10.7813                 4.5348                 1.3639

                     43                     44                     45
                      A                      A                      A
 Frequencies --   3596.4277              3753.7113              3832.8344
 Red. masses --      1.0480                 1.1026                 1.0645
 Frc consts  --      7.9862                 9.1532                 9.2142
 IR Inten    --    125.9387                86.5978               128.1825

 - Thermochemistry -
 -------------------
 Temperature   298.150 Kelvin.  Pressure   1.00000 Atm.
 Atom     1 has atomic number  6 and mass  12.00000

 Molecular mass:   137.04768 amu.
 Principal axes and moments of inertia in atomic units:
                           1         2         3
     Eigenvalues --   777.388941470.570322247.95925
           X            0.99999  -0.00460   0.00001
           Y            0.00460   0.99999  -0.00000
           Z           -0.00001   0.00000   1.00000
 This molecule is an asymmetric top.
 Rotational symmetry number  1.
 Warning -- assumption of classical behavior for rotation
           may cause significant error
 Rotational temperatures (Kelvin)      0.11142     0.05890     0.03853
 Rotational constants (GHZ):           2.32154     1.22724     0.80284
    1 imaginary frequencies ignored.
 Zero-point vibrational energy     349713.4 (Joules/Mol)
                                   83.58352 (Kcal/Mol)
 Warning -- explicit consideration of  12 degrees of freedom as
           vibrations may cause significant error
 Vibrational temperatures:    124.94   226.78   344.69   380.06   542.24
          (Kelvin)            602.83   626.80   744.47   785.58   825.88
                              832.09   851.63   951.99  1053.44  1105.61
                             1119.49  1194.23  1256.43  1274.93  1447.86
                             1465.66  1504.54  1568.51  1603.41  1704.60
                             1711.16  1753.80  1901.23  1927.64  1990.06
                             2043.33  2168.76  2210.92  2320.75  2368.13
                             2440.28  2605.22  4575.82  4599.05  4616.23
                             4660.79  5174.45  5400.75  5514.59

 Zero-point correction=                           0.133199 (Hartree/Particle)
 Thermal correction to Energy=                    0.141049
 Thermal correction to Enthalpy=                  0.141993
 Thermal correction to Gibbs Free Energy=         0.100492
 Sum of electronic and zero-point Energies=           -476.046646
 Sum of electronic and thermal Energies=              -476.038796
 Sum of electronic and thermal Enthalpies=            -476.037852
 Sum of electronic and thermal Free Energies=         -476.079353

                     E (Thermal)             CV                S
                      KCal/Mol        Cal/Mol-Kelvin    Cal/Mol-Kelvin
 Total                   88.509             30.980             87.347
 Electronic               0.000              0.000              0.000
 Translational            0.889              2.981             40.657
 Rotational               0.889              2.981             29.331
 Vibrational             86.732             25.018             17.358
 Vibration     1          0.601              1.958              3.730
 Vibration     2          0.621              1.894              2.578
 Vibration     3          0.657              1.780              1.806
 Vibration     4          0.671              1.739              1.634
 Vibration     5          0.747              1.519              1.052
 Vibration     6          0.782              1.429              0.895
 Vibration     7          0.796              1.393              0.840
 Vibration     8          0.872              1.211              0.616
 Vibration     9          0.901              1.148              0.553
 Vibration    10          0.930              1.087              0.497
 Vibration    11          0.935              1.078              0.488
 Vibration    12          0.949              1.049              0.464

 Optimization completed.
    -- Stationary point found.
 Normal termination of Gaussian 09 at Thu Dec 19 22:45:49 2024.
