 Gaussian 09, Revision E.01,
 Gaussian 09:  ES64L-G09RevE.01 30-Nov-2015

 ---------------------------
 # opt freq apfd/6-31+g(d,p)
 ---------------------------

 ----------
 [No Title]
 ----------
 Symbolic Z-matrix:
 Charge =  1 Multiplicity = 1

 SCF Done:  E(RAPFD) =  -571.180571985     A.U. after   16 cycles
 SCF Done:  E(RAPFD) =  -571.180768156     A.U. after   11 cycles
 SCF Done:  E(RAPFD) =  -571.180778577     A.U. after   10 cycles
 SCF Done:  E(RAPFD) =  -571.180781244     A.U. after    9 cycles
 SCF Done:  E(RAPFD) =  -571.180781586     A.U. after    8 cycles
 Optimization completed.
    -- Stationary point found.
 Normal termination of Gaussian 09 at Mon May 20 13:44:23 2024.

 ----------------------------------------------------------------------
 #N Geom=AllCheck Guess=TCheck SCRF=Check GenChk RAPFD/6-31+G(d,p) Freq
 ----------------------------------------------------------------------

 Structure from the checkpoint file:  "2APFDDHB21.chk"
 ----------
 [No Title]
 ----------
 Charge =  1 Multiplicity = 1

                         Standard orientation:
 ---------------------------------------------------------------------
 Center     Atomic      Atomic             Coordinates (Angstroms)
 Number     Number       Type             X           Y           Z
 ---------------------------------------------------------------------
      1          6           0        0.224199    1.273590   -0.000008
      2          6           0        0.422817   -0.138454   -0.000007
      3          6           0       -0.695918   -1.011630    0.000013
      4          6           0       -1.981508   -0.511374    0.000022
      5          6           0       -2.167555    0.887856    0.000017
      6          6           0       -1.089974    1.755877    0.000007
      7          8           0       -2.994516   -1.399903    0.000016
      8          6           0        1.717374   -0.720053   -0.000014
      9          8           0        1.797224   -2.025583    0.000085
     10          8           0        2.777841    0.032478   -0.000119
     11          8           0        1.286680    2.084174   -0.000016
     12          1           0       -0.552188   -2.085852    0.000014
     13          1           0       -3.174750    1.299759    0.000018
     14          1           0       -1.265572    2.828837    0.000006
     15          1           0       -3.855778   -0.966385    0.000125
     16          1           0        2.692195   -2.396286   -0.000011
     17          1           0        3.626820   -0.435763   -0.000041
     18          1           0        1.014829    3.011494   -0.000008
 ---------------------------------------------------------------------

 SCF Done:  E(RAPFD) =  -571.180781586     A.U. after    1 cycles

 The electronic state is 1-A.
 Alpha  occ. eigenvalues --  -19.46559 -19.46547 -19.39900 -19.36703 -10.58024
 Alpha  occ. eigenvalues --  -10.46477 -10.43363 -10.41275 -10.39508 -10.38456
 Alpha  occ. eigenvalues --  -10.38430  -1.37543  -1.29535  -1.26398  -1.23072
 Alpha  occ. eigenvalues --   -1.04975  -0.98376  -0.92490  -0.89426  -0.85281
 Alpha  occ. eigenvalues --   -0.81066  -0.79806  -0.74583  -0.72507  -0.68973
 Alpha  occ. eigenvalues --   -0.68868  -0.67455  -0.63937  -0.60812  -0.59744
 Alpha  occ. eigenvalues --   -0.59462  -0.58882  -0.57530  -0.57433  -0.56163
 Alpha  occ. eigenvalues --   -0.52888  -0.51006  -0.48426  -0.44387  -0.37730
 Alpha virt. eigenvalues --   -0.25368  -0.17058  -0.15375  -0.12251  -0.11521
 Alpha virt. eigenvalues --   -0.10769  -0.09770  -0.08709  -0.07429  -0.06879
 Alpha virt. eigenvalues --   -0.05307  -0.04070  -0.03160  -0.02718  -0.02296

 Mulliken charges:
               1
     1  C   -0.842213
     2  C    0.363358
     3  C    0.001701
     4  C   -0.503041
     5  C    0.293568
     6  C    0.219982
     7  O   -0.485479
     8  C    0.951495
     9  O   -0.381929
    10  O   -0.383724
    11  O   -0.469746
    12  H    0.213355
    13  H    0.190641
    14  H    0.186057
    15  H    0.384856
    16  H    0.411054
    17  H    0.428939
    18  H    0.421127
 Sum of Mulliken charges =   1.00000

 Dipole moment (field-independent basis, Debye):
    X=              3.9233    Y=              0.3349    Z=              0.0001  Tot=              3.9376
 Quadrupole moment (field-independent basis, Debye-Ang):
   XX=            -13.4824   YY=            -39.8596   ZZ=            -63.4861
   XY=            -16.7449   XZ=             -0.0010   YZ=              0.0003

  Exact polarizability: 136.545  -8.770 112.471  -0.001  -0.001  46.196
 Approx polarizability: 214.017 -15.697 191.710  -0.002  -0.001  66.609

                      1                      2                      3
                      A                      A                      A
 Frequencies --     20.0951               107.9771               157.6102
 Red. masses --     12.3673                 4.9847                 4.9466
 Frc consts  --      0.0029                 0.0342                 0.0724
 IR Inten    --      0.0935                13.8702                 9.1676

                      4                      5                      6
                      A                      A                      A
 Frequencies --    220.0535               295.6378               311.7075
 Red. masses --      6.2558                 1.0675                 1.1460
 Frc consts  --      0.1785                 0.0550                 0.0656
 IR Inten    --      9.7895                 8.6342               134.9607

                      7                      8                      9
                      A                      A                      A
 Frequencies --    337.4407               359.7398               377.3589
 Red. masses --      6.1198                 4.1055                 6.9890
 Frc consts  --      0.4106                 0.3130                 0.5864
 IR Inten    --      0.8579                 0.5524                 1.3351

                     10                     11                     12
                      A                      A                      A
 Frequencies --    414.6527               428.5562               443.8773
 Red. masses --      5.9764                 2.0794                 1.2195
 Frc consts  --      0.6054                 0.2250                 0.1416
 IR Inten    --      1.0784                79.2775                37.4951

                     13                     14                     15
                      A                      A                      A
 Frequencies --    469.7080               508.4979               540.4079
 Red. masses --      6.8491                 1.3521                 3.6843
 Frc consts  --      0.8903                 0.2060                 0.6339
 IR Inten    --      4.0734               177.3229                28.8761

                     16                     17                     18
                      A                      A                      A
 Frequencies --    550.7655               610.9751               684.1231
 Red. masses --      2.6330                 3.2466                 5.0352
 Frc consts  --      0.4706                 0.7140                 1.3885
 IR Inten    --    101.6158                69.2974                 2.2854

                     19                     20                     21
                      A                      A                      A
 Frequencies --    725.7210               781.9169               785.6249
 Red. masses --      5.3790                 5.3850                 6.2069
 Frc consts  --      1.6691                 1.9398                 2.2571
 IR Inten    --      6.6306                 0.0449                43.3577

                     22                     23                     24
                      A                      A                      A
 Frequencies --    844.2159               890.6667               972.4457
 Red. masses --      1.6719                 1.5193                 1.3393
 Frc consts  --      0.7020                 0.7101                 0.7462
 IR Inten    --     49.0530                16.2596                 0.5648

                     25                     26                     27
                      A                      A                      A
 Frequencies --    978.2115              1082.2451              1120.0335
 Red. masses --      4.2996                 2.7492                 1.5128
 Frc consts  --      2.4241                 1.8971                 1.1181
 IR Inten    --     19.0067               312.7339               140.5356

                     28                     29                     30
                      A                      A                      A
 Frequencies --   1127.1247              1182.6804              1201.3750
 Red. masses --      1.3864                 1.6858                 1.1668
 Frc consts  --      1.0377                 1.3893                 0.9922
 IR Inten    --    111.4883                63.9844               118.6185

                     31                     32                     33
                      A                      A                      A
 Frequencies --   1211.9287              1296.6485              1344.4341
 Red. masses --      1.1936                 1.7908                 6.8907
 Frc consts  --      1.0329                 1.7740                 7.3382
 IR Inten    --     97.3396                 3.3310                81.6761

                     34                     35                     36
                      A                      A                      A
 Frequencies --   1348.8758              1432.6334              1465.5530
 Red. masses --      1.7780                 4.5850                 3.3005
 Frc consts  --      1.9060                 5.5444                 4.1767
 IR Inten    --    226.4523                98.0197                32.7911

                     37                     38                     39
                      A                      A                      A
 Frequencies --   1528.3445              1570.6602              1615.5830
 Red. masses --      4.8166                 4.7123                 5.7643
 Frc consts  --      6.6288                 6.8493                 8.8645
 IR Inten    --     44.2118               509.5337               720.5404

                     40                     41                     42
                      A                      A                      A
 Frequencies --   1634.4190              1705.9723              3202.8988
 Red. masses --      6.1163                 6.2898                 1.0894
 Frc consts  --      9.6264                10.7852                 6.5848
 IR Inten    --    190.7413                44.4488                 2.4308

                     43                     44                     45
                      A                      A                      A
 Frequencies --   3216.9306              3259.1563              3799.9639
 Red. masses --      1.0961                 1.0922                 1.0681
 Frc consts  --      6.6835                 6.8355                 9.0872
 IR Inten    --      0.6985                 8.5427               119.8600

                     46                     47                     48
                      A                      A                      A
 Frequencies --   3817.3144              3841.3427              3873.9786
 Red. masses --      1.0668                 1.0665                 1.0671
 Frc consts  --      9.1590                 9.2719                 9.4352
 IR Inten    --    498.9276               168.6570               141.7735

 - Thermochemistry -
 -------------------
 Temperature   298.150 Kelvin.  Pressure   1.00000 Atm.
 Atom     1 has atomic number  6 and mass  12.00000

 Molecular mass:   155.03443 amu.
 Principal axes and moments of inertia in atomic units:
                           1         2         3
     Eigenvalues --  1015.042521983.974652999.01718
           X            0.99959  -0.02853   0.00001
           Y            0.02853   0.99959   0.00001
           Z           -0.00001  -0.00001   1.00000
 This molecule is an asymmetric top.
 Rotational symmetry number  1.
 Warning -- assumption of classical behavior for rotation
           may cause significant error
 Rotational temperatures (Kelvin)      0.08533     0.04366     0.02888
 Rotational constants (GHZ):           1.77800     0.90966     0.60178
 Zero-point vibrational energy     357073.8 (Joules/Mol)
                                   85.34269 (Kcal/Mol)
 Warning -- explicit consideration of  17 degrees of freedom as
           vibrations may cause significant error
 Vibrational temperatures:     28.91   155.35   226.77   316.61   425.36
          (Kelvin)            448.48   485.50   517.58   542.93   596.59
                              616.60   638.64   675.80   731.61   777.53
                              792.43   879.06   984.30  1044.15  1125.00
                             1130.34  1214.64  1281.47  1399.13  1407.43
                             1557.11  1611.48  1621.68  1701.61  1728.51
                             1743.69  1865.59  1934.34  1940.73  2061.24
                             2108.60  2198.94  2259.83  2324.46  2351.56
                             2454.51  4608.25  4628.44  4689.19  5467.29
                             5492.26  5526.83  5573.78

 Zero-point correction=                           0.136002 (Hartree/Particle)
 Thermal correction to Energy=                    0.146127
 Thermal correction to Enthalpy=                  0.147071
 Thermal correction to Gibbs Free Energy=         0.099852
 Sum of electronic and zero-point Energies=           -571.044779
 Sum of electronic and thermal Energies=              -571.034654
 Sum of electronic and thermal Enthalpies=            -571.033710
 Sum of electronic and thermal Free Energies=         -571.080929

                     E (Thermal)             CV                S
                      KCal/Mol        Cal/Mol-Kelvin    Cal/Mol-Kelvin
 Total                   91.696             38.854             99.381
 Electronic               0.000              0.000              0.000
 Translational            0.889              2.981             41.025
 Rotational               0.889              2.981             30.180
 Vibrational             89.919             32.892             28.176
 Vibration     1          0.593              1.986              6.625
 Vibration     2          0.606              1.943              3.305
 Vibration     3          0.621              1.894              2.578
 Vibration     4          0.647              1.811              1.959
 Vibration     5          0.690              1.682              1.441
 Vibration     6          0.700              1.651              1.353
 Vibration     7          0.718              1.601              1.224
 Vibration     8          0.734              1.555              1.123
 Vibration     9          0.748              1.518              1.050
 Vibration    10          0.778              1.438              0.910
 Vibration    11          0.790              1.408              0.863
 Vibration    12          0.803              1.374              0.815
 Vibration    13          0.827              1.317              0.738
 Vibration    14          0.864              1.231              0.637
 Vibration    15          0.895              1.161              0.564
 Vibration    16          0.906              1.138              0.543
 Vibration    17          0.970              1.009              0.431

 Optimization completed.
    -- Stationary point found.
 Normal termination of Gaussian 09 at Mon May 20 13:45:48 2024.
