 Gaussian 09, Revision E.01,
 Gaussian 09:  ES64L-G09RevE.01 30-Nov-2015

 ---------------------------
 # opt freq apfd/6-31+g(d,p)
 ---------------------------

 ----------
 [No Title]
 ----------
 Symbolic Z-matrix:
 Charge =  0 Multiplicity = 1

 SCF Done:  E(RAPFD) =  -570.845389681     A.U. after   15 cycles
 SCF Done:  E(RAPFD) =  -570.845593131     A.U. after   11 cycles
 SCF Done:  E(RAPFD) =  -570.845604580     A.U. after   10 cycles
 SCF Done:  E(RAPFD) =  -570.845598319     A.U. after   10 cycles
 SCF Done:  E(RAPFD) =  -570.845606602     A.U. after   10 cycles
 Optimization completed.
    -- Stationary point found.
 Normal termination of Gaussian 09 at Mon May 20 13:09:09 2024.

 ----------------------------------------------------------------------
 #N Geom=AllCheck Guess=TCheck SCRF=Check GenChk RAPFD/6-31+G(d,p) Freq
 ----------------------------------------------------------------------

 Structure from the checkpoint file:  "lwAPFDDHB.chk"
 ----------
 [No Title]
 ----------
 Charge =  0 Multiplicity = 1

                         Standard orientation:
 ---------------------------------------------------------------------
 Center     Atomic      Atomic             Coordinates (Angstroms)
 Number     Number       Type             X           Y           Z
 ---------------------------------------------------------------------
      1          6           0        0.240288    1.270885    0.000027
      2          6           0        0.463289   -0.122637    0.000028
      3          6           0       -0.633448   -0.994207    0.000022
      4          6           0       -1.937274   -0.515645   -0.000004
      5          6           0       -2.157469    0.863834   -0.000014
      6          6           0       -1.078178    1.740181    0.000014
      7          8           0       -2.944398   -1.438297   -0.000053
      8          6           0        1.840773   -0.675927    0.000025
      9          8           0        1.842607   -2.035235    0.000146
     10          8           0        2.873390   -0.041283   -0.000262
     11          8           0        1.294361    2.121661    0.000056
     12          1           0       -0.466345   -2.064969    0.000033
     13          1           0       -3.170747    1.261662   -0.000046
     14          1           0       -1.262736    2.812970    0.000016
     15          1           0       -3.798420   -0.993950    0.000209
     16          1           0        2.774589   -2.297787    0.000020
     17          1           0        0.968094    3.028396    0.000081
 ---------------------------------------------------------------------

 SCF Done:  E(RAPFD) =  -570.845606602     A.U. after    1 cycles

 The electronic state is 1-A.
 Alpha  occ. eigenvalues --  -19.24258 -19.23929 -19.23838 -19.18312 -10.34848
 Alpha  occ. eigenvalues --  -10.29752 -10.28854 -10.24447 -10.24381 -10.23928
 Alpha  occ. eigenvalues --  -10.23172  -1.13025  -1.10044  -1.09680  -1.03519
 Alpha  occ. eigenvalues --   -0.89009  -0.80275  -0.77075  -0.69210  -0.66005
 Alpha  occ. eigenvalues --   -0.62784  -0.57615  -0.56795  -0.52044  -0.50331
 Alpha  occ. eigenvalues --   -0.49209  -0.46855  -0.46416  -0.44448  -0.43742
 Alpha  occ. eigenvalues --   -0.43085  -0.41708  -0.40719  -0.38739  -0.37364
 Alpha  occ. eigenvalues --   -0.33563  -0.33160  -0.28494  -0.28394  -0.23032
 Alpha virt. eigenvalues --   -0.05740  -0.00420  -0.00302   0.00332   0.01897
 Alpha virt. eigenvalues --    0.02888   0.04812   0.05357   0.06004   0.06321
 Alpha virt. eigenvalues --    0.07286   0.08747   0.08990   0.09831   0.10324

 Mulliken charges:
               1
     1  C   -1.126025
     2  C    0.673357
     3  C   -0.056411
     4  C   -0.448165
     5  C    0.223612
     6  C    0.213632
     7  O   -0.515390
     8  C    0.796946
     9  O   -0.470334
    10  O   -0.443882
    11  O   -0.457889
    12  H    0.196471
    13  H    0.146698
    14  H    0.143216
    15  H    0.362484
    16  H    0.390845
    17  H    0.370834
 Sum of Mulliken charges =  -0.00000

 Dipole moment (field-independent basis, Debye):
    X=             -3.7402    Y=              1.7813    Z=              0.0007  Tot=              4.1428
 Quadrupole moment (field-independent basis, Debye-Ang):
   XX=            -57.6822   YY=            -52.5672   ZZ=            -65.3735
   XY=             -9.9862   XZ=             -0.0006   YZ=              0.0003

  Exact polarizability: 128.088  -0.574 110.167  -0.002  -0.001  50.915
 Approx polarizability: 192.622   7.831 176.465  -0.004  -0.002  72.783

                      1                      2                      3
                      A                      A                      A
 Frequencies --     21.2322               118.7016               168.7756
 Red. masses --     11.5792                 5.4521                 5.1890
 Frc consts  --      0.0031                 0.0453                 0.0871
 IR Inten    --      2.2683                 2.9554                 5.5067

                      4                      5                      6
                      A                      A                      A
 Frequencies --    205.9080               269.7146               315.6933
 Red. masses --      7.6775                 1.0989                 6.4137
 Frc consts  --      0.1918                 0.0471                 0.3766
 IR Inten    --      3.2916               109.5951                 1.5455

                      7                      8                      9
                      A                      A                      A
 Frequencies --    351.3720               373.8307               378.0442
 Red. masses --      1.2184                 4.1961                11.1526
 Frc consts  --      0.0886                 0.3455                 0.9391
 IR Inten    --     90.9668                11.4592                 4.1408

                     10                     11                     12
                      A                      A                      A
 Frequencies --    407.1070               433.3207               478.6918
 Red. masses --      6.2499                 3.0577                 7.5469
 Frc consts  --      0.6103                 0.3383                 1.0189
 IR Inten    --      1.3717                 4.6957                 1.5626

                     13                     14                     15
                      A                      A                      A
 Frequencies --    542.1867               549.0563               593.2343
 Red. masses --      4.1766                 2.2015                 1.4077
 Frc consts  --      0.7234                 0.3910                 0.2919
 IR Inten    --     34.3707                 0.4312               118.8646

                     16                     17                     18
                      A                      A                      A
 Frequencies --    665.1240               683.6948               745.6876
 Red. masses --      5.0299                 4.2168                 5.4889
 Frc consts  --      1.3110                 1.1613                 1.7983
 IR Inten    --     46.7942                18.6538                25.3721

                     19                     20                     21
                      A                      A                      A
 Frequencies --    773.5804               797.1785               822.2912
 Red. masses --      5.9410                 2.5596                 2.5887
 Frc consts  --      2.0947                 0.9584                 1.0313
 IR Inten    --     49.3541                 0.0118                64.7301

                     22                     23                     24
                      A                      A                      A
 Frequencies --    905.5967               934.3056               967.7022
 Red. masses --      1.3978                 1.3704                 5.2558
 Frc consts  --      0.6754                 0.7048                 2.8998
 IR Inten    --      7.7170                 4.6655                11.5726

                     25                     26                     27
                      A                      A                      A
 Frequencies --   1073.4317              1163.8618              1185.8298
 Red. masses --      3.5480                 1.8197                 1.4595
 Frc consts  --      2.4087                 1.4523                 1.2092
 IR Inten    --     84.0075                63.1207               308.2622

                     28                     29                     30
                      A                      A                      A
 Frequencies --   1196.7462              1207.0847              1284.3113
 Red. masses --      1.2488                 1.2164                 1.8640
 Frc consts  --      1.0538                 1.0442                 1.8115
 IR Inten    --     40.4920               157.3774                16.6458

                     31                     32                     33
                      A                      A                      A
 Frequencies --   1321.7628              1333.8363              1370.8793
 Red. masses --      7.3871                 1.5786                 2.9192
 Frc consts  --      7.6038                 1.6547                 3.2323
 IR Inten    --      1.7547               244.4435               155.4439

                     34                     35                     36
                      A                      A                      A
 Frequencies --   1402.7864              1496.5430              1552.3036
 Red. masses --      4.7562                 3.3539                 3.2933
 Frc consts  --      5.5144                 4.4257                 4.6756
 IR Inten    --     19.0829                20.2689               210.6055

                     37                     38                     39
                      A                      A                      A
 Frequencies --   1658.8544              1694.3617              1825.0749
 Red. masses --      6.6113                 6.5899                10.1441
 Frc consts  --     10.7189                11.1466                19.9079
 IR Inten    --     64.4359                 6.9742               397.9945

                     40                     41                     42
                      A                      A                      A
 Frequencies --   3182.0495              3198.8148              3257.3145
 Red. masses --      1.0875                 1.0955                 1.0916
 Frc consts  --      6.4880                 6.6045                 6.8241
 IR Inten    --     15.2781                 8.4084                 3.4378

                     43                     44                     45
                      A                      A                      A
 Frequencies --   3820.7257              3868.7240              3888.1162
 Red. masses --      1.0646                 1.0659                 1.0664
 Frc consts  --      9.1569                 9.3992                 9.4986
 IR Inten    --    102.2748                65.3006                71.4187

 - Thermochemistry -
 -------------------
 Temperature   298.150 Kelvin.  Pressure   1.00000 Atm.
 Atom     1 has atomic number  6 and mass  12.00000

 Molecular mass:   154.02661 amu.
 Principal axes and moments of inertia in atomic units:
                           1         2         3
     Eigenvalues --  1021.429391966.271192987.70056
           X            0.99972  -0.02362   0.00001
           Y            0.02362   0.99972   0.00000
           Z           -0.00001  -0.00000   1.00000
 This molecule is an asymmetric top.
 Rotational symmetry number  1.
 Warning -- assumption of classical behavior for rotation
           may cause significant error
 Rotational temperatures (Kelvin)      0.08480     0.04405     0.02899
 Rotational constants (GHZ):           1.76688     0.91785     0.60406
 Zero-point vibrational energy     325895.3 (Joules/Mol)
                                   77.89085 (Kcal/Mol)
 Warning -- explicit consideration of  15 degrees of freedom as
           vibrations may cause significant error
 Vibrational temperatures:     30.55   170.78   242.83   296.26   388.06
          (Kelvin)            454.21   505.55   537.86   543.92   585.74
                              623.45   688.73   780.08   789.97   853.53
                              956.96   983.68  1072.88  1113.01  1146.96
                             1183.09  1302.95  1344.26  1392.31  1544.43
                             1674.54  1706.14  1721.85  1736.72  1847.84
                             1901.72  1919.09  1972.39  2018.29  2153.19
                             2233.42  2386.72  2437.81  2625.87  4578.25
                             4602.38  4686.54  5497.17  5566.22  5594.12

 Zero-point correction=                           0.124127 (Hartree/Particle)
 Thermal correction to Energy=                    0.133858
 Thermal correction to Enthalpy=                  0.134803
 Thermal correction to Gibbs Free Energy=         0.088271
 Sum of electronic and zero-point Energies=           -570.721480
 Sum of electronic and thermal Energies=              -570.711748
 Sum of electronic and thermal Enthalpies=            -570.710804
 Sum of electronic and thermal Free Energies=         -570.757336

                     E (Thermal)             CV                S
                      KCal/Mol        Cal/Mol-Kelvin    Cal/Mol-Kelvin
 Total                   83.997             36.948             97.935
 Electronic               0.000              0.000              0.000
 Translational            0.889              2.981             41.006
 Rotational               0.889              2.981             30.174
 Vibrational             82.220             30.987             26.755
 Vibration     1          0.593              1.985              6.515
 Vibration     2          0.609              1.934              3.121
 Vibration     3          0.625              1.881              2.449
 Vibration     4          0.640              1.831              2.080
 Vibration     5          0.674              1.729              1.598
 Vibration     6          0.703              1.644              1.332
 Vibration     7          0.728              1.572              1.160
 Vibration     8          0.745              1.526              1.064
 Vibration     9          0.748              1.517              1.047
 Vibration    10          0.772              1.455              0.937
 Vibration    11          0.794              1.398              0.848
 Vibration    12          0.835              1.297              0.714
 Vibration    13          0.897              1.157              0.561
 Vibration    14          0.904              1.142              0.546
 Vibration    15          0.951              1.046              0.461

 Optimization completed.
    -- Stationary point found.
 Normal termination of Gaussian 09 at Mon May 20 13:10:36 2024.
