 Gaussian 09, Revision E.01,
 Gaussian 09:  ES64L-G09RevE.01 30-Nov-2015

 -----------------------------
 # opt freq B2PLYP/6-31+g(d,p)
 -----------------------------

 ----------
 [No Title]
 ----------
 Symbolic Z-matrix:
 Charge =  0 Multiplicity = 1

 SCF Done:  E(RB2PLYP) =  -570.212612702     A.U. after   16 cycles
 E2(B2PLYP) =    -0.5479538575D+00 E(B2PLYP) =    -0.57076056655948D+03
 SCF Done:  E(RB2PLYP) =  -570.211537562     A.U. after   12 cycles
 E2(B2PLYP) =    -0.5495674982D+00 E(B2PLYP) =    -0.57076110506036D+03
 SCF Done:  E(RB2PLYP) =  -570.211415233     A.U. after   11 cycles
 E2(B2PLYP) =    -0.5497190927D+00 E(B2PLYP) =    -0.57076113432534D+03
 SCF Done:  E(RB2PLYP) =  -570.211333274     A.U. after   12 cycles
 E2(B2PLYP) =    -0.5497848126D+00 E(B2PLYP) =    -0.57076111808619D+03
 SCF Done:  E(RB2PLYP) =  -570.211402051     A.U. after   11 cycles
 E2(B2PLYP) =    -0.5497355992D+00 E(B2PLYP) =    -0.57076113765053D+03
 Optimization completed.
    -- Stationary point found.
 Normal termination of Gaussian 09 at Sat Dec 14 12:28:50 2024.

 ----------------------------------------------------------------------
 #N Geom=AllCheck Guess=TCheck SCRF=Check GenChk RB2PLYP(FC)/6-31+G(d,p
 ) Freq
 ----------------------------------------------------------------------

 Structure from the checkpoint file:  "pbe0631DHB.chk"
 ----------
 [No Title]
 ----------
 Charge =  0 Multiplicity = 1

                         Standard orientation:
 ---------------------------------------------------------------------
 Center     Atomic      Atomic             Coordinates (Angstroms)
 Number     Number       Type             X           Y           Z
 ---------------------------------------------------------------------
      1          6           0        0.234669    1.273218    0.000046
      2          6           0        0.467019   -0.120508    0.000104
      3          6           0       -0.630420   -0.997303    0.000081
      4          6           0       -1.936175   -0.517013    0.000008
      5          6           0       -2.164283    0.861272   -0.000049
      6          6           0       -1.083983    1.741898   -0.000020
      7          8           0       -2.950206   -1.445865   -0.000029
      8          6           0        1.845271   -0.674969    0.000167
      9          8           0        1.848006   -2.042476    0.000107
     10          8           0        2.884147   -0.041072   -0.000401
     11          8           0        1.290667    2.136572    0.000083
     12          1           0       -0.462750   -2.064883    0.000124
     13          1           0       -3.176453    1.253419   -0.000114
     14          1           0       -1.267634    2.811739   -0.000056
     15          1           0       -3.805248   -0.998675    0.000070
     16          1           0        2.783610   -2.300770   -0.000180
     17          1           0        0.954980    3.042327    0.000061
 ---------------------------------------------------------------------

 SCF Done:  E(RB2PLYP) =  -570.211402051     A.U. after    1 cycles
 E2(B2PLYP) =    -0.5497355989D+00 E(B2PLYP) =    -0.57076113765022D+03
 E2(B2PLYP) =    -0.5497355989D+00 E(B2PLYP) =    -0.57076113765022D+03

 The electronic state is 1-A.
 Alpha  occ. eigenvalues --  -19.79678 -19.78996 -19.78882 -19.73796 -10.77826
 Alpha  occ. eigenvalues --  -10.71819 -10.70714 -10.66205 -10.66195 -10.65566
 Alpha  occ. eigenvalues --  -10.65069  -1.25562  -1.21949  -1.21577  -1.15744
 Alpha  occ. eigenvalues --   -0.99751  -0.90350  -0.86719  -0.77745  -0.74010
 Alpha  occ. eigenvalues --   -0.69970  -0.64614  -0.63353  -0.59113  -0.57480
 Alpha  occ. eigenvalues --   -0.56598  -0.53245  -0.53068  -0.50824  -0.49884
 Alpha  occ. eigenvalues --   -0.49815  -0.48032  -0.47523  -0.45177  -0.43662
 Alpha  occ. eigenvalues --   -0.39277  -0.38739  -0.34887  -0.31769  -0.26442
 Alpha virt. eigenvalues --   -0.01070   0.01740   0.02538   0.03940   0.04377
 Alpha virt. eigenvalues --    0.04991   0.07233   0.07789   0.07846   0.09062
 Alpha virt. eigenvalues --    0.09904   0.10487   0.10633   0.12288   0.12326

 Mulliken charges:
               1
     1  C   -0.895965
     2  C    0.559740
     3  C   -0.046623
     4  C   -0.340756
     5  C    0.181594
     6  C    0.149990
     7  O   -0.564249
     8  C    0.895412
     9  O   -0.531579
    10  O   -0.495783
    11  O   -0.506881
    12  H    0.192493
    13  H    0.138974
    14  H    0.134201
    15  H    0.362687
    16  H    0.397059
    17  H    0.369687
 Sum of Mulliken charges =  -0.00000

 Dipole moment (field-independent basis, Debye):
    X=             -3.9354    Y=              1.8306    Z=              0.0006  Tot=              4.3403
 Quadrupole moment (field-independent basis, Debye-Ang):
   XX=            -59.1640   YY=            -53.6508   ZZ=            -65.8488
   XY=            -10.9431   XZ=              0.0011   YZ=              0.0006

  Exact polarizability: 128.439  -0.345 110.803  -0.002  -0.002  52.054
 Approx polarizability: 144.416   4.392 133.264  -0.003  -0.004  64.575

 ******    1 imaginary frequencies (negative Signs) ******

                      1                      2                      3
                      A                      A                      A
 Frequencies --    -28.4902               116.3639               161.6192
 Red. masses --     11.6585                 5.4819                 5.7763
 Frc consts  --      0.0056                 0.0437                 0.0889
 IR Inten    --      1.6739                 3.4483                 2.3610

                      4                      5                      6
                      A                      A                      A
 Frequencies --    199.5854               227.5656               322.9379
 Red. masses --      7.7096                 1.0936                 1.1453
 Frc consts  --      0.1809                 0.0334                 0.0704
 IR Inten    --      3.1833               111.9711               100.1640

                      7                      8                      9
                      A                      A                      A
 Frequencies --    323.2154               351.7762               395.5150
 Red. masses --      6.8682                 5.5626                 7.9471
 Frc consts  --      0.4227                 0.4056                 0.7325
 IR Inten    --      0.6460                 3.5182                 3.3989

                     10                     11                     12
                      A                      A                      A
 Frequencies --    402.7275               411.8526               482.6364
 Red. masses --      7.0840                 3.2176                 8.0425
 Frc consts  --      0.6769                 0.3216                 1.1038
 IR Inten    --      1.6668                 4.8479                 1.0985

                     13                     14                     15
                      A                      A                      A
 Frequencies --    524.9869               546.1746               549.3875
 Red. masses --      3.4382                 4.0415                 3.1417
 Frc consts  --      0.5583                 0.7103                 0.5587
 IR Inten    --      6.3738                36.4450                 9.4079

                     16                     17                     18
                      A                      A                      A
 Frequencies --    589.6528               661.5154               732.3024
 Red. masses --      1.5359                 4.9503                 5.6634
 Frc consts  --      0.3146                 1.2763                 1.7894
 IR Inten    --    110.0351                44.9907                19.7919

                     19                     20                     21
                      A                      A                      A
 Frequencies --    765.4576               790.0114               801.1179
 Red. masses --      7.7176                 1.4620                 5.9734
 Frc consts  --      2.6643                 0.5376                 2.2587
 IR Inten    --     19.1597                52.5707                54.8111

                     22                     23                     24
                      A                      A                      A
 Frequencies --    857.0383               903.5040               956.0807
 Red. masses --      1.2042                 1.3167                 5.6079
 Frc consts  --      0.5212                 0.6333                 3.0202
 IR Inten    --     10.9446                 4.4076                12.6934

                     25                     26                     27
                      A                      A                      A
 Frequencies --   1066.9984              1157.1966              1184.9196
 Red. masses --      3.7926                 1.8213                 1.4830
 Frc consts  --      2.5440                 1.4370                 1.2268
 IR Inten    --    128.8125                63.0737               292.4064

                     28                     29                     30
                      A                      A                      A
 Frequencies --   1201.2047              1206.9427              1283.3668
 Red. masses --      1.2750                 1.2081                 2.0364
 Frc consts  --      1.0839                 1.0369                 1.9761
 IR Inten    --     13.3946               187.7806                39.9188

                     31                     32                     33
                      A                      A                      A
 Frequencies --   1307.8163              1338.6350              1365.0010
 Red. masses --      7.4097                 1.4902                 2.7773
 Frc consts  --      7.4669                 1.5733                 3.0489
 IR Inten    --      5.4467               212.6530               134.1780

                     34                     35                     36
                      A                      A                      A
 Frequencies --   1404.4173              1491.8115              1550.3822
 Red. masses --      5.0753                 3.2664                 2.9700
 Frc consts  --      5.8980                 4.2830                 4.2062
 IR Inten    --      5.0822                22.4560               171.5079

                     37                     38                     39
                      A                      A                      A
 Frequencies --   1651.0836              1682.3831              1790.3019
 Red. masses --      6.4595                 6.3880                 9.7249
 Frc consts  --     10.3750                10.6528                18.3650
 IR Inten    --     63.0674                 6.1817               359.9851

                     40                     41                     42
                      A                      A                      A
 Frequencies --   3199.8003              3215.7216              3274.5731
 Red. masses --      1.0877                 1.0955                 1.0914
 Frc consts  --      6.5616                 6.6742                 6.8954
 IR Inten    --     14.7710                 9.5162                 3.0472

                     43                     44                     45
                      A                      A                      A
 Frequencies --   3787.9233              3835.6730              3855.2525
 Red. masses --      1.0646                 1.0662                 1.0665
 Frc consts  --      9.0003                 9.2420                 9.3391
 IR Inten    --     99.1512                61.5478                67.0560

 - Thermochemistry -
 -------------------
 Temperature   298.150 Kelvin.  Pressure   1.00000 Atm.
 Atom     1 has atomic number  6 and mass  12.00000

 Molecular mass:   154.02661 amu.
 Principal axes and moments of inertia in atomic units:
                           1         2         3
     Eigenvalues --  1028.839001974.995123003.83410
           X            0.99972  -0.02371   0.00001
           Y            0.02371   0.99972   0.00001
           Z           -0.00001  -0.00001   1.00000
 This molecule is an asymmetric top.
 Rotational symmetry number  1.
 Warning -- assumption of classical behavior for rotation
           may cause significant error
 Rotational temperatures (Kelvin)      0.08419     0.04386     0.02883
 Rotational constants (GHZ):           1.75415     0.91380     0.60081
    1 imaginary frequencies ignored.
 Zero-point vibrational energy     322539.7 (Joules/Mol)
                                   77.08884 (Kcal/Mol)
 Warning -- explicit consideration of  15 degrees of freedom as
           vibrations may cause significant error
 Vibrational temperatures:    167.42   232.53   287.16   327.42   464.63
          (Kelvin)            465.03   506.13   569.06   579.43   592.56
                              694.41   755.34   785.82   790.45   848.38
                              951.77  1053.62  1101.32  1136.65  1152.63
                             1233.09  1299.94  1375.59  1535.17  1664.95
                             1704.83  1728.26  1736.52  1846.48  1881.65
                             1925.99  1963.93  2020.64  2146.38  2230.65
                             2375.54  2420.57  2575.84  4603.79  4626.70
                             4711.37  5449.97  5518.67  5546.84

 Zero-point correction=                           0.122849 (Hartree/Particle)
 Thermal correction to Energy=                    0.131943
 Thermal correction to Enthalpy=                  0.132887
 Thermal correction to Gibbs Free Energy=         0.088943
 Sum of electronic and zero-point Energies=           -570.638289
 Sum of electronic and thermal Energies=              -570.629195
 Sum of electronic and thermal Enthalpies=            -570.628250
 Sum of electronic and thermal Free Energies=         -570.672194

                     E (Thermal)             CV                S
                      KCal/Mol        Cal/Mol-Kelvin    Cal/Mol-Kelvin
 Total                   82.796             35.721             92.488
 Electronic               0.000              0.000              0.000
 Translational            0.889              2.981             41.006
 Rotational               0.889              2.981             30.191
 Vibrational             81.018             29.760             21.291
 Vibration     1          0.608              1.936              3.160
 Vibration     2          0.622              1.889              2.531
 Vibration     3          0.638              1.840              2.137
 Vibration     4          0.651              1.799              1.898
 Vibration     5          0.708              1.630              1.295
 Vibration     6          0.708              1.629              1.294
 Vibration     7          0.728              1.572              1.158
 Vibration     8          0.762              1.480              0.979
 Vibration     9          0.768              1.464              0.953
 Vibration    10          0.776              1.445              0.920
 Vibration    11          0.839              1.289              0.703
 Vibration    12          0.880              1.195              0.599
 Vibration    13          0.901              1.148              0.552
 Vibration    14          0.905              1.141              0.545
 Vibration    15          0.947              1.054              0.468

 Optimization completed.
    -- Stationary point found.
 Normal termination of Gaussian 09 at Sat Dec 14 12:47:50 2024.
