 Gaussian 09, Revision E.01,
 Gaussian 09:  ES64L-G09RevE.01 30-Nov-2015

 -----------------------------
 # opt freq B2PLYP/6-31+g(d,p)
 -----------------------------

 ----------
 [No Title]
 ----------
 Symbolic Z-matrix:
 Charge =  1 Multiplicity = 1

 SCF Done:  E(RB2PLYP) =  -570.541522182     A.U. after   16 cycles
 E2(B2PLYP) =    -0.5475572627D+00 E(B2PLYP) =    -0.57108907944460D+03
 SCF Done:  E(RB2PLYP) =  -570.544892975     A.U. after   12 cycles
 E2(B2PLYP) =    -0.5452199851D+00 E(B2PLYP) =    -0.57109011296050D+03
 SCF Done:  E(RB2PLYP) =  -570.545051481     A.U. after   11 cycles
 E2(B2PLYP) =    -0.5450841115D+00 E(B2PLYP) =    -0.57109013559264D+03
 SCF Done:  E(RB2PLYP) =  -570.545043069     A.U. after   10 cycles
 E2(B2PLYP) =    -0.5451014417D+00 E(B2PLYP) =    -0.57109014451086D+03
 SCF Done:  E(RB2PLYP) =  -570.545031404     A.U. after    9 cycles
 E2(B2PLYP) =    -0.5451137852D+00 E(B2PLYP) =    -0.57109014518906D+03
 Optimization completed.
    -- Stationary point found.
 Normal termination of Gaussian 09 at Sat Dec 14 16:04:14 2024.

 ----------------------------------------------------------------------
 #N Geom=AllCheck Guess=TCheck SCRF=Check GenChk RB2PLYP(FC)/6-31+G(d,p
 ) Freq
 ----------------------------------------------------------------------

 Structure from the checkpoint file:  "B2PLYPDHByang.chk"
 ----------
 [No Title]
 ----------
 Charge =  1 Multiplicity = 1

                         Standard orientation:
 ---------------------------------------------------------------------
 Center     Atomic      Atomic             Coordinates (Angstroms)
 Number     Number       Type             X           Y           Z
 ---------------------------------------------------------------------
      1          6           0       -0.219572    1.274621    0.000010
      2          6           0       -0.423550   -0.138117   -0.000002
      3          6           0        0.695978   -1.016010   -0.000015
      4          6           0        1.983092   -0.511509   -0.000021
      5          6           0        2.174825    0.886998   -0.000016
      6          6           0        1.094861    1.757945    0.000002
      7          8           0        3.003420   -1.404356   -0.000042
      8          6           0       -1.721629   -0.718992    0.000010
      9          8           0       -1.804694   -2.030198    0.000133
     10          8           0       -2.788726    0.033775   -0.000112
     11          8           0       -1.287521    2.093135    0.000042
     12          1           0        0.552207   -2.087367   -0.000027
     13          1           0        3.180393    1.294808   -0.000025
     14          1           0        1.268721    2.828129    0.000010
     15          1           0        3.865122   -0.967056   -0.000019
     16          1           0       -2.704563   -2.395046    0.000031
     17          1           0       -3.635723   -0.443003    0.000002
     18          1           0       -1.010009    3.021076    0.000051
 ---------------------------------------------------------------------

 SCF Done:  E(RB2PLYP) =  -570.545031404     A.U. after    1 cycles
 E2(B2PLYP) =    -0.5451137860D+00 E(B2PLYP) =    -0.57109014518987D+03
 E2(B2PLYP) =    -0.5451137860D+00 E(B2PLYP) =    -0.57109014518986D+03

 The electronic state is 1-A.
 Alpha  occ. eigenvalues --  -20.02254 -20.02185 -19.94771 -19.91471 -11.01481
 Alpha  occ. eigenvalues --  -10.88618 -10.85006 -10.82750 -10.81390 -10.80342
 Alpha  occ. eigenvalues --  -10.79886  -1.50436  -1.42032  -1.38214  -1.34769
 Alpha  occ. eigenvalues --   -1.15568  -1.08242  -1.02039  -0.98133  -0.92619
 Alpha  occ. eigenvalues --   -0.89137  -0.87161  -0.81658  -0.79212  -0.76391
 Alpha  occ. eigenvalues --   -0.75716  -0.74403  -0.70715  -0.67585  -0.65964
 Alpha  occ. eigenvalues --   -0.65678  -0.65475  -0.64069  -0.64068  -0.62144
 Alpha  occ. eigenvalues --   -0.59220  -0.57179  -0.53724  -0.47621  -0.40887
 Alpha virt. eigenvalues --   -0.20690  -0.14365  -0.10052  -0.09012  -0.08093
 Alpha virt. eigenvalues --   -0.07046  -0.06450  -0.06427  -0.05328  -0.04727
 Alpha virt. eigenvalues --   -0.03029  -0.02017  -0.01408  -0.00559   0.00090

 Mulliken charges:
               1
     1  C   -0.602365
     2  C    0.233471
     3  C    0.012409
     4  C   -0.391632
     5  C    0.261838
     6  C    0.145787
     7  O   -0.537369
     8  C    1.047138
     9  O   -0.432979
    10  O   -0.428549
    11  O   -0.526407
    12  H    0.208988
    13  H    0.183309
    14  H    0.176335
    15  H    0.384269
    16  H    0.414628
    17  H    0.430633
    18  H    0.420497
 Sum of Mulliken charges =   1.00000

 Dipole moment (field-independent basis, Debye):
    X=             -3.9942    Y=              0.3143    Z=              0.0001  Tot=              4.0065
 Quadrupole moment (field-independent basis, Debye-Ang):
   XX=            -14.5130   YY=            -41.1246   ZZ=            -63.9936
   XY=             18.0148   XZ=             -0.0003   YZ=              0.0005

  Exact polarizability: 139.075   9.372 114.133  -0.000  -0.000  47.121
 Approx polarizability: 155.474   9.154 138.543  -0.000  -0.001  59.469

 ******    1 imaginary frequencies (negative Signs) ******

                      1                      2                      3
                      A                      A                      A
 Frequencies --    -62.7479               103.6981               147.0056
 Red. masses --     11.7686                 5.0200                 5.1928
 Frc consts  --      0.0273                 0.0318                 0.0661
 IR Inten    --      0.0019                15.2009                 4.1522

                      4                      5                      6
                      A                      A                      A
 Frequencies --    212.6490               275.2666               276.9111
 Red. masses --      6.2928                 1.1185                 1.1169
 Frc consts  --      0.1677                 0.0499                 0.0505
 IR Inten    --     10.0338                51.6992                99.2419

                      7                      8                      9
                      A                      A                      A
 Frequencies --    340.2677               342.6243               391.8599
 Red. masses --      6.2539                 4.3019                 7.4758
 Frc consts  --      0.4266                 0.2975                 0.6763
 IR Inten    --      0.3186                 0.0810                 0.6757

                     10                     11                     12
                      A                      A                      A
 Frequencies --    404.4469               409.5411               410.0587
 Red. masses --      2.3167                 1.1644                 5.9435
 Frc consts  --      0.2233                 0.1151                 0.5888
 IR Inten    --      7.0658                88.9142                 0.8225

                     13                     14                     15
                      A                      A                      A
 Frequencies --    477.1655               497.0636               521.6318
 Red. masses --      7.9154                 1.3588                 3.2322
 Frc consts  --      1.0618                 0.1978                 0.5182
 IR Inten    --      2.1111               190.3429                92.3577

                     16                     17                     18
                      A                      A                      A
 Frequencies --    562.0513               598.2434               653.7181
 Red. masses --      4.0566                 6.3405                 4.2546
 Frc consts  --      0.7550                 1.3370                 1.0713
 IR Inten    --     19.8134                14.5816                48.6693

                     19                     20                     21
                      A                      A                      A
 Frequencies --    733.2655               738.0281               809.8285
 Red. masses --      5.4345                 9.1807                 5.8985
 Frc consts  --      1.7216                 2.9463                 2.2792
 IR Inten    --     13.8049                 0.7739                44.3827

                     22                     23                     24
                      A                      A                      A
 Frequencies --    822.0624               840.9414               942.0690
 Red. masses --      1.4337                 1.3029                 1.2844
 Frc consts  --      0.5709                 0.5429                 0.6716
 IR Inten    --     45.0535                20.0820                 0.5577

                     25                     26                     27
                      A                      A                      A
 Frequencies --    966.8403              1096.5165              1127.7224
 Red. masses --      4.7232                 3.1740                 1.1276
 Frc consts  --      2.6013                 2.2485                 0.8449
 IR Inten    --     24.2786               169.5426               176.6730

                     28                     29                     30
                      A                      A                      A
 Frequencies --   1157.6953              1194.8378              1205.2265
 Red. masses --      1.7636                 1.4327                 1.2382
 Frc consts  --      1.3926                 1.2051                 1.0597
 IR Inten    --    147.8822               288.5157                89.9894

                     31                     32                     33
                      A                      A                      A
 Frequencies --   1212.7492              1302.0499              1328.7602
 Red. masses --      1.2074                 1.8877                 9.7989
 Frc consts  --      1.0463                 1.8856                10.1935
 IR Inten    --    148.2020                17.7604                86.6473

                     34                     35                     36
                      A                      A                      A
 Frequencies --   1347.9410              1436.7815              1460.3335
 Red. masses --      1.7019                 5.1183                 3.1768
 Frc consts  --      1.8219                 6.2252                 3.9916
 IR Inten    --    232.2130                85.2110                10.6478

                     37                     38                     39
                      A                      A                      A
 Frequencies --   1513.2318              1561.9145              1614.5966
 Red. masses --      4.6109                 3.7563                 4.3411
 Frc consts  --      6.2208                 5.3991                 6.6677
 IR Inten    --     69.1939               488.3198               548.1314

                     40                     41                     42
                      A                      A                      A
 Frequencies --   1627.2440              1693.2203              3220.4270
 Red. masses --      5.7797                 6.1140                 1.0897
 Frc consts  --      9.0170                10.3277                 6.6587
 IR Inten    --    242.0474                63.0571                 2.3063

                     43                     44                     45
                      A                      A                      A
 Frequencies --   3233.7415              3273.8149              3766.0022
 Red. masses --      1.0961                 1.0922                 1.0682
 Frc consts  --      6.7532                 6.8971                 8.9258
 IR Inten    --      0.3941                 8.1070               130.8361

                     46                     47                     48
                      A                      A                      A
 Frequencies --   3784.6184              3810.9300              3842.9806
 Red. masses --      1.0669                 1.0667                 1.0671
 Frc consts  --      9.0032                 9.1279                 9.2852
 IR Inten    --    491.4962               167.1050               136.9329

 - Thermochemistry -
 -------------------
 Temperature   298.150 Kelvin.  Pressure   1.00000 Atm.
 Atom     1 has atomic number  6 and mass  12.00000

 Molecular mass:   155.03443 amu.
 Principal axes and moments of inertia in atomic units:
                           1         2         3
     Eigenvalues --  1019.816121995.654883015.47100
           X            0.99959   0.02850   0.00001
           Y           -0.02850   0.99959   0.00001
           Z           -0.00001  -0.00001   1.00000
 This molecule is an asymmetric top.
 Rotational symmetry number  1.
 Warning -- assumption of classical behavior for rotation
           may cause significant error
 Rotational temperatures (Kelvin)      0.08493     0.04340     0.02872
 Rotational constants (GHZ):           1.76967     0.90434     0.59849
    1 imaginary frequencies ignored.
 Zero-point vibrational energy     354636.4 (Joules/Mol)
                                   84.76013 (Kcal/Mol)
 Warning -- explicit consideration of  16 degrees of freedom as
           vibrations may cause significant error
 Vibrational temperatures:    149.20   211.51   305.95   396.05   398.41
          (Kelvin)            489.57   492.96   563.80   581.91   589.24
                              589.98   686.53   715.16   750.51   808.67
                              860.74   940.55  1055.00  1061.86  1165.16
                             1182.76  1209.93  1355.43  1391.07  1577.64
                             1622.54  1665.66  1719.10  1734.05  1744.87
                             1873.36  1911.79  1939.38  2067.21  2101.09
                             2177.20  2247.24  2323.04  2341.24  2436.16
                             4633.47  4652.63  4710.28  5418.43  5445.21
                             5483.07  5529.18

 Zero-point correction=                           0.135074 (Hartree/Particle)
 Thermal correction to Energy=                    0.144519
 Thermal correction to Enthalpy=                  0.145463
 Thermal correction to Gibbs Free Energy=         0.100924
 Sum of electronic and zero-point Energies=           -570.955071
 Sum of electronic and thermal Energies=              -570.945626
 Sum of electronic and thermal Enthalpies=            -570.944682
 Sum of electronic and thermal Free Energies=         -570.989222

                     E (Thermal)             CV                S
                      KCal/Mol        Cal/Mol-Kelvin    Cal/Mol-Kelvin
 Total                   90.687             37.386             93.741
 Electronic               0.000              0.000              0.000
 Translational            0.889              2.981             41.025
 Rotational               0.889              2.981             30.196
 Vibrational             88.910             31.424             22.520
 Vibration     1          0.605              1.946              3.384
 Vibration     2          0.617              1.906              2.711
 Vibration     3          0.644              1.822              2.021
 Vibration     4          0.677              1.719              1.563
 Vibration     5          0.678              1.716              1.553
 Vibration     6          0.720              1.595              1.211
 Vibration     7          0.722              1.590              1.200
 Vibration     8          0.759              1.488              0.993
 Vibration     9          0.770              1.461              0.946
 Vibration    10          0.774              1.450              0.928
 Vibration    11          0.774              1.448              0.926
 Vibration    12          0.834              1.301              0.718
 Vibration    13          0.853              1.257              0.666
 Vibration    14          0.877              1.202              0.606
 Vibration    15          0.918              1.113              0.520
 Vibration    16          0.956              1.036              0.453

 Optimization completed.
    -- Stationary point found.
 Normal termination of Gaussian 09 at Sat Dec 14 16:24:23 2024.
