 Gaussian 09, Revision E.01,
 Gaussian 09:  ES64L-G09RevE.01 30-Nov-2015

 ----------------------------
 # opt freq b3lyp/6-31+g(d,p)
 ----------------------------

 ----------
 [No Title]
 ----------
 Symbolic Z-matrix:
 Charge =  1 Multiplicity = 1

 SCF Done:  E(RB3LYP) =  -571.576143270     A.U. after   16 cycles
 SCF Done:  E(RB3LYP) =  -571.616609362     A.U. after   14 cycles
 SCF Done:  E(RB3LYP) =  -571.624836705     A.U. after   13 cycles
 SCF Done:  E(RB3LYP) =  -571.626647193     A.U. after   12 cycles
 SCF Done:  E(RB3LYP) =  -571.627624321     A.U. after   13 cycles
 SCF Done:  E(RB3LYP) =  -571.627756445     A.U. after   12 cycles
 SCF Done:  E(RB3LYP) =  -571.627807615     A.U. after   11 cycles
 SCF Done:  E(RB3LYP) =  -571.627835673     A.U. after   11 cycles
 SCF Done:  E(RB3LYP) =  -571.627849516     A.U. after   11 cycles
 SCF Done:  E(RB3LYP) =  -571.627861671     A.U. after   11 cycles
 SCF Done:  E(RB3LYP) =  -571.627875915     A.U. after   11 cycles
 SCF Done:  E(RB3LYP) =  -571.627881215     A.U. after   10 cycles
 SCF Done:  E(RB3LYP) =  -571.627882422     A.U. after   10 cycles
 SCF Done:  E(RB3LYP) =  -571.627882955     A.U. after   10 cycles
 SCF Done:  E(RB3LYP) =  -571.627883322     A.U. after   10 cycles
 SCF Done:  E(RB3LYP) =  -571.627883365     A.U. after    8 cycles
 Optimization completed.
    -- Stationary point found.
 Normal termination of Gaussian 09 at Wed Jun 19 14:54:03 2024.

 ----------------------------------------------------------------------
 #N Geom=AllCheck Guess=TCheck SCRF=Check GenChk RB3LYP/6-31+G(d,p) Fre
 q
 ----------------------------------------------------------------------

 Structure from the checkpoint file:  "b3lypDHByanggd3.chk"
 ----------
 [No Title]
 ----------
 Charge =  1 Multiplicity = 1

                         Standard orientation:
 ---------------------------------------------------------------------
 Center     Atomic      Atomic             Coordinates (Angstroms)
 Number     Number       Type             X           Y           Z
 ---------------------------------------------------------------------
      1          6           0       -0.216273    1.277105   -0.000067
      2          6           0       -0.426271   -0.137963   -0.000090
      3          6           0        0.695035   -1.016208   -0.000092
      4          6           0        1.983602   -0.517055    0.000036
      5          6           0        2.177158    0.882470    0.000051
      6          6           0        1.100194    1.755980    0.000009
      7          8           0        3.003093   -1.409467    0.000084
      8          6           0       -1.725510   -0.716693    0.000000
      9          8           0       -1.813522   -2.027826   -0.000195
     10          8           0       -2.793317    0.035423    0.000313
     11          8           0       -1.277430    2.100110   -0.000163
     12          1           0        0.548172   -2.088730   -0.000183
     13          1           0        3.185520    1.288787    0.000078
     14          1           0        1.277220    2.827700   -0.000028
     15          1           0        3.868079   -0.976747    0.000317
     16          1           0       -2.713134   -2.394831   -0.000202
     17          1           0       -3.643314   -0.437036    0.000695
     18          1           0       -1.000736    3.029117   -0.000072
 ---------------------------------------------------------------------

 SCF Done:  E(RB3LYP) =  -571.627883365     A.U. after    1 cycles

 The electronic state is 1-A.
 Alpha  occ. eigenvalues --  -19.42492 -19.42483 -19.35930 -19.32762 -10.55925
 Alpha  occ. eigenvalues --  -10.44359 -10.41282 -10.39197 -10.37376 -10.36322
 Alpha  occ. eigenvalues --  -10.36310  -1.35342  -1.27476  -1.24365  -1.21033
 Alpha  occ. eigenvalues --   -1.03328  -0.96904  -0.91145  -0.88149  -0.83957
 Alpha  occ. eigenvalues --   -0.79964  -0.78658  -0.73455  -0.71551  -0.67938
 Alpha  occ. eigenvalues --   -0.67671  -0.66471  -0.63331  -0.60117  -0.58878
 Alpha  occ. eigenvalues --   -0.58748  -0.58083  -0.56760  -0.56519  -0.55201
 Alpha  occ. eigenvalues --   -0.52238  -0.50559  -0.47690  -0.43833  -0.37366
 Alpha virt. eigenvalues --   -0.25877  -0.18425  -0.15984  -0.12980  -0.12793
 Alpha virt. eigenvalues --   -0.12029  -0.11081  -0.09853  -0.08580  -0.07890
 Alpha virt. eigenvalues --   -0.06385  -0.05224  -0.04319  -0.03828  -0.03410

 Mulliken charges:
               1
     1  C   -0.672524
     2  C    0.290505
     3  C   -0.075621
     4  C   -0.268913
     5  C    0.228100
     6  C    0.148817
     7  O   -0.507561
     8  C    1.009478
     9  O   -0.395798
    10  O   -0.388736
    11  O   -0.490707
    12  H    0.185051
    13  H    0.160100
    14  H    0.155383
    15  H    0.379744
    16  H    0.405274
    17  H    0.421523
    18  H    0.415886
 Sum of Mulliken charges =   1.00000

 Dipole moment (field-independent basis, Debye):
    X=             -3.8130    Y=              0.3971    Z=              0.0012  Tot=              3.8336
 Quadrupole moment (field-independent basis, Debye-Ang):
   XX=            -14.3226   YY=            -40.8274   ZZ=            -63.6648
   XY=             16.8929   XZ=             -0.0015   YZ=             -0.0003

  Exact polarizability: 139.406   9.195 114.140   0.000   0.001  47.096
 Approx polarizability: 225.949  18.390 201.202   0.002   0.003  69.602

                      1                      2                      3
                      A                      A                      A
 Frequencies --     25.3858               110.1602               158.5215
 Red. masses --     12.5294                 5.0381                 4.9016
 Frc consts  --      0.0048                 0.0360                 0.0726
 IR Inten    --      0.0421                13.3206                 7.8506

                      4                      5                      6
                      A                      A                      A
 Frequencies --    211.5038               286.3347               305.3969
 Red. masses --      6.2824                 1.0644                 1.1490
 Frc consts  --      0.1656                 0.0514                 0.0631
 IR Inten    --      9.6781                 7.9169               133.2165

                      7                      8                      9
                      A                      A                      A
 Frequencies --    339.2449               358.5714               392.8580
 Red. masses --      6.2533                 4.1531                 7.4724
 Frc consts  --      0.4240                 0.3146                 0.6795
 IR Inten    --      0.2027                 0.7086                 0.5582

                     10                     11                     12
                      A                      A                      A
 Frequencies --    409.8315               429.8350               444.0088
 Red. masses --      5.9365                 2.0896                 1.1920
 Frc consts  --      0.5875                 0.2275                 0.1385
 IR Inten    --      0.7350                82.6581                35.4607

                     13                     14                     15
                      A                      A                      A
 Frequencies --    476.7658               501.1002               549.0384
 Red. masses --      7.8825                 1.3783                 2.7046
 Frc consts  --      1.0557                 0.2039                 0.4804
 IR Inten    --      2.2840               197.4107                79.5863

                     16                     17                     18
                      A                      A                      A
 Frequencies --    562.0124               653.1063               680.5076
 Red. masses --      4.0207                 4.2202                 5.1448
 Frc consts  --      0.7483                 1.0606                 1.4037
 IR Inten    --     20.1890                47.3190                 1.5682

                     19                     20                     21
                      A                      A                      A
 Frequencies --    730.8976               777.9076               809.4755
 Red. masses --      5.3836                 5.2126                 5.8593
 Frc consts  --      1.6945                 1.8585                 2.2620
 IR Inten    --     13.5821                 0.0311                44.6786

                     22                     23                     24
                      A                      A                      A
 Frequencies --    843.7600               892.6477               964.0106
 Red. masses --      1.6561                 1.5124                 4.6430
 Frc consts  --      0.6946                 0.7100                 2.5422
 IR Inten    --     46.3977                13.9308                24.5430

                     25                     26                     27
                      A                      A                      A
 Frequencies --    971.1227              1093.6311              1115.8459
 Red. masses --      1.3376                 3.0900                 1.1213
 Frc consts  --      0.7432                 2.1775                 0.8226
 IR Inten    --      0.5836               163.4472               175.5503

                     28                     29                     30
                      A                      A                      A
 Frequencies --   1150.6485              1183.9930              1193.9206
 Red. masses --      1.7745                 1.4617                 1.2342
 Frc consts  --      1.3843                 1.2073                 1.0366
 IR Inten    --    158.6426               273.6699               102.9243

                     31                     32                     33
                      A                      A                      A
 Frequencies --   1204.0290              1293.4861              1319.9041
 Red. masses --      1.2000                 1.8892                 9.7989
 Frc consts  --      1.0250                 1.8623                10.0580
 IR Inten    --    128.5766                11.7066                87.7334

                     34                     35                     36
                      A                      A                      A
 Frequencies --   1340.7649              1415.8464              1449.7979
 Red. masses --      1.7514                 4.8938                 3.2500
 Frc consts  --      1.8550                 5.7801                 4.0249
 IR Inten    --    233.4281                69.9309                12.3445

                     37                     38                     39
                      A                      A                      A
 Frequencies --   1502.2771              1550.4357              1602.6717
 Red. masses --      4.6303                 3.7348                 4.4193
 Frc consts  --      6.1568                 5.2896                 6.6879
 IR Inten    --     74.7105               481.5082               565.0547

                     40                     41                     42
                      A                      A                      A
 Frequencies --   1613.8909              1682.4694              3189.7262
 Red. masses --      5.7578                 6.0665                 1.0894
 Frc consts  --      8.8359                10.1178                 6.5302
 IR Inten    --    211.6540                44.6922                 2.9282

                     43                     44                     45
                      A                      A                      A
 Frequencies --   3202.5120              3247.5312              3751.4173
 Red. masses --      1.0957                 1.0919                 1.0681
 Frc consts  --      6.6213                 6.7851                 8.8564
 IR Inten    --      0.2929                 7.5553               120.6257

                     46                     47                     48
                      A                      A                      A
 Frequencies --   3769.4870              3792.1407              3822.9438
 Red. masses --      1.0668                 1.0667                 1.0671
 Frc consts  --      8.9308                 9.0376                 9.1883
 IR Inten    --    470.4672               159.2600               133.1104

 - Thermochemistry -
 -------------------
 Temperature   298.150 Kelvin.  Pressure   1.00000 Atm.
 Atom     1 has atomic number  6 and mass  12.00000

 Molecular mass:   155.03443 amu.
 Principal axes and moments of inertia in atomic units:
                           1         2         3
     Eigenvalues --  1021.693741999.489023021.18273
           X            0.99960   0.02845  -0.00000
           Y           -0.02845   0.99960   0.00000
           Z            0.00000  -0.00000   1.00000
 This molecule is an asymmetric top.
 Rotational symmetry number  1.
 Warning -- assumption of classical behavior for rotation
           may cause significant error
 Rotational temperatures (Kelvin)      0.08477     0.04332     0.02867
 Rotational constants (GHZ):           1.76642     0.90260     0.59736
 Zero-point vibrational energy     355131.6 (Joules/Mol)
                                   84.87850 (Kcal/Mol)
 Warning -- explicit consideration of  16 degrees of freedom as
           vibrations may cause significant error
 Vibrational temperatures:     36.52   158.50   228.08   304.31   411.97
          (Kelvin)            439.40   488.10   515.90   565.23   589.66
                              618.44   638.83   685.96   720.97   789.94
                              808.61   939.67   979.10  1051.60  1119.23
                             1164.65  1213.98  1284.32  1386.99  1397.23
                             1573.49  1605.45  1655.52  1703.50  1717.78
                             1732.33  1861.04  1899.05  1929.06  2037.08
                             2085.93  2161.44  2230.73  2305.88  2322.03
                             2420.70  4589.30  4607.69  4672.47  5397.45
                             5423.44  5456.04  5500.36

 Zero-point correction=                           0.135263 (Hartree/Particle)
 Thermal correction to Energy=                    0.145354
 Thermal correction to Enthalpy=                  0.146298
 Thermal correction to Gibbs Free Energy=         0.099315
 Sum of electronic and zero-point Energies=           -571.492621
 Sum of electronic and thermal Energies=              -571.482530
 Sum of electronic and thermal Enthalpies=            -571.481586
 Sum of electronic and thermal Free Energies=         -571.528568

                     E (Thermal)             CV                S
                      KCal/Mol        Cal/Mol-Kelvin    Cal/Mol-Kelvin
 Total                   91.211             38.747             98.884
 Electronic               0.000              0.000              0.000
 Translational            0.889              2.981             41.025
 Rotational               0.889              2.981             30.202
 Vibrational             89.433             32.786             27.657
 Vibration     1          0.593              1.985              6.161
 Vibration     2          0.606              1.941              3.266
 Vibration     3          0.621              1.893              2.567
 Vibration     4          0.643              1.823              2.031
 Vibration     5          0.684              1.699              1.496
 Vibration     6          0.696              1.663              1.387
 Vibration     7          0.719              1.597              1.216
 Vibration     8          0.733              1.558              1.128
 Vibration     9          0.760              1.485              0.989
 Vibration    10          0.774              1.449              0.927
 Vibration    11          0.791              1.405              0.859
 Vibration    12          0.804              1.374              0.814
 Vibration    13          0.833              1.302              0.719
 Vibration    14          0.856              1.248              0.655
 Vibration    15          0.904              1.142              0.546
 Vibration    16          0.918              1.113              0.520

 Optimization completed.
    -- Stationary point found.
 Normal termination of Gaussian 09 at Wed Jun 19 14:55:24 2024.
