 Gaussian 09, Revision E.01,
 Gaussian 09:  ES64L-G09RevE.01 30-Nov-2015

 ----------------------------
 # opt freq b3lyp/6-31+g(d,p)
 ----------------------------

 ----------
 [No Title]
 ----------
 Symbolic Z-matrix:
 Charge =  0 Multiplicity = 1

 SCF Done:  E(RB3LYP) =  -571.257329638     A.U. after   15 cycles
 SCF Done:  E(RB3LYP) =  -571.291355750     A.U. after   13 cycles
 SCF Done:  E(RB3LYP) =  -571.294852385     A.U. after   12 cycles
 SCF Done:  E(RB3LYP) =  -571.294980680     A.U. after   11 cycles
 SCF Done:  E(RB3LYP) =  -571.295002666     A.U. after   11 cycles
 SCF Done:  E(RB3LYP) =  -571.295004275     A.U. after    9 cycles
 Optimization completed.
    -- Stationary point found.
 Normal termination of Gaussian 09 at Wed Jun 19 13:39:14 2024.

 ----------------------------------------------------------------------
 #N Geom=AllCheck Guess=TCheck SCRF=Check GenChk RB3LYP/6-31+G(d,p) Fre
 q
 ----------------------------------------------------------------------

 Structure from the checkpoint file:  "b3lypDHBgd3.chk"
 ----------
 [No Title]
 ----------
 Charge =  0 Multiplicity = 1

                         Standard orientation:
 ---------------------------------------------------------------------
 Center     Atomic      Atomic             Coordinates (Angstroms)
 Number     Number       Type             X           Y           Z
 ---------------------------------------------------------------------
      1          6           0        0.232256    1.275513    0.000048
      2          6           0        0.468728   -0.119161    0.000072
      3          6           0       -0.628837   -0.997433    0.000045
      4          6           0       -1.936381   -0.522393   -0.000021
      5          6           0       -2.166215    0.856555   -0.000055
      6          6           0       -1.088986    1.739754   -0.000001
      7          8           0       -2.949284   -1.451085   -0.000113
      8          6           0        1.849211   -0.672390    0.000117
      9          8           0        1.857848   -2.039329    0.000135
     10          8           0        2.884897   -0.039435   -0.000308
     11          8           0        1.281790    2.142637    0.000095
     12          1           0       -0.457219   -2.066158    0.000078
     13          1           0       -3.181355    1.247021   -0.000128
     14          1           0       -1.275691    2.811187   -0.000015
     15          1           0       -3.807383   -1.008155    0.000312
     16          1           0        2.793732   -2.298383   -0.000072
     17          1           0        0.947252    3.049506    0.000109
 ---------------------------------------------------------------------

 SCF Done:  E(RB3LYP) =  -571.295004275     A.U. after    1 cycles

 The electronic state is 1-A.
 Alpha  occ. eigenvalues --  -19.20284 -19.19982 -19.19919 -19.14571 -10.32959
 Alpha  occ. eigenvalues --  -10.27660 -10.26751 -10.22380 -10.22238 -10.21785
 Alpha  occ. eigenvalues --  -10.21065  -1.11027  -1.08072  -1.07636  -1.01837
 Alpha  occ. eigenvalues --   -0.87429  -0.78910  -0.75771  -0.68031  -0.64893
 Alpha  occ. eigenvalues --   -0.61622  -0.56630  -0.55847  -0.51107  -0.49591
 Alpha  occ. eigenvalues --   -0.48242  -0.45859  -0.45797  -0.43934  -0.42786
 Alpha  occ. eigenvalues --   -0.42277  -0.40765  -0.40099  -0.38030  -0.37024
 Alpha  occ. eigenvalues --   -0.32856  -0.32520  -0.27962  -0.27907  -0.22694
 Alpha virt. eigenvalues --   -0.06291  -0.01467  -0.01070  -0.00872   0.00733
 Alpha virt. eigenvalues --    0.01805   0.03932   0.04245   0.04978   0.05356
 Alpha virt. eigenvalues --    0.06288   0.07713   0.08012   0.08762   0.09213

 Mulliken charges:
               1
     1  C   -0.940354
     2  C    0.582934
     3  C   -0.133114
     4  C   -0.220163
     5  C    0.159339
     6  C    0.128381
     7  O   -0.538466
     8  C    0.879960
     9  O   -0.486450
    10  O   -0.456992
    11  O   -0.480913
    12  H    0.168262
    13  H    0.115565
    14  H    0.112548
    15  H    0.357141
    16  H    0.386256
    17  H    0.366064
 Sum of Mulliken charges =  -0.00000

 Dipole moment (field-independent basis, Debye):
    X=             -3.8041    Y=              1.8272    Z=              0.0010  Tot=              4.2201
 Quadrupole moment (field-independent basis, Debye-Ang):
   XX=            -58.8252   YY=            -53.7374   ZZ=            -65.6202
   XY=            -10.1402   XZ=             -0.0016   YZ=              0.0001

  Exact polarizability: 130.485  -0.898 112.133  -0.001  -0.001  52.110
 Approx polarizability: 201.235   7.449 184.288  -0.004  -0.003  76.444

                      1                      2                      3
                      A                      A                      A
 Frequencies --     24.9654               120.3121               169.7419
 Red. masses --     11.6543                 5.5071                 5.1860
 Frc consts  --      0.0043                 0.0470                 0.0880
 IR Inten    --      2.1554                 2.9782                 4.8457

                      4                      5                      6
                      A                      A                      A
 Frequencies --    198.3925               262.3016               322.5555
 Red. masses --      7.6906                 1.1003                 6.8618
 Frc consts  --      0.1783                 0.0446                 0.4206
 IR Inten    --      3.1700               109.0356                 0.7617

                      7                      8                      9
                      A                      A                      A
 Frequencies --    351.5075               370.9638               396.1353
 Red. masses --      1.2217                 4.1510                 7.5077
 Frc consts  --      0.0889                 0.3366                 0.6941
 IR Inten    --     89.4997                12.9455                 2.9724

                     10                     11                     12
                      A                      A                      A
 Frequencies --    402.7494               436.0218               482.4330
 Red. masses --      7.4302                 3.0687                 8.0471
 Frc consts  --      0.7101                 0.3437                 1.1035
 IR Inten    --      1.5144                 4.8255                 0.8973

                     13                     14                     15
                      A                      A                      A
 Frequencies --    546.5735               547.6576               591.3436
 Red. masses --      4.0058                 2.2483                 1.4074
 Frc consts  --      0.7051                 0.3973                 0.2900
 IR Inten    --     36.7004                 0.3168               115.7365

                     16                     17                     18
                      A                      A                      A
 Frequencies --    662.3053               681.9341               730.9601
 Red. masses --      4.9090                 4.2148                 5.5641
 Frc consts  --      1.2687                 1.1548                 1.7516
 IR Inten    --     45.5623                19.7317                20.0103

                     19                     20                     21
                      A                      A                      A
 Frequencies --    792.2566               800.3872               819.7271
 Red. masses --      2.8693                 5.9336                 2.2940
 Frc consts  --      1.0611                 2.2396                 0.9082
 IR Inten    --      0.3267                56.9408                60.5191

                     22                     23                     24
                      A                      A                      A
 Frequencies --    906.0826               933.0939               953.4864
 Red. masses --      1.3855                 1.3702                 5.5340
 Frc consts  --      0.6702                 0.7029                 2.9643
 IR Inten    --      6.2329                 4.9279                12.8181

                     25                     26                     27
                      A                      A                      A
 Frequencies --   1064.1097              1150.9390              1175.2392
 Red. masses --      3.6709                 1.8361                 1.5039
 Frc consts  --      2.4490                 1.4330                 1.2238
 IR Inten    --    119.0417                69.0661               318.0119

                     28                     29                     30
                      A                      A                      A
 Frequencies --   1190.0496              1197.6191              1276.2296
 Red. masses --      1.2891                 1.1988                 2.0698
 Frc consts  --      1.0756                 1.0131                 1.9863
 IR Inten    --     15.6856               183.0376                40.4748

                     31                     32                     33
                      A                      A                      A
 Frequencies --   1302.3935              1329.5412              1353.6610
 Red. masses --      8.5038                 1.5180                 2.6680
 Frc consts  --      8.4986                 1.5809                 2.8805
 IR Inten    --      5.3398               220.4737               125.9549

                     34                     35                     36
                      A                      A                      A
 Frequencies --   1382.3032              1483.5065              1539.3149
 Red. masses --      4.4991                 3.3289                 2.9717
 Frc consts  --      5.0651                 4.3165                 4.1487
 IR Inten    --      9.5010                24.7937               169.2624

                     37                     38                     39
                      A                      A                      A
 Frequencies --   1639.1756              1673.2918              1800.6484
 Red. masses --      6.4310                 6.3923                 9.9777
 Frc consts  --     10.1807                10.5452                19.0607
 IR Inten    --     69.5443                 4.1857               396.2920

                     40                     41                     42
                      A                      A                      A
 Frequencies --   3167.1048              3182.9720              3245.8126
 Red. masses --      1.0873                 1.0950                 1.0911
 Frc consts  --      6.4260                 6.5363                 6.7727
 IR Inten    --     16.5771                10.5373                 2.9528

                     43                     44                     45
                      A                      A                      A
 Frequencies --   3773.3376              3817.8348              3836.1180
 Red. masses --      1.0647                 1.0661                 1.0664
 Frc consts  --      8.9313                 9.1558                 9.2463
 IR Inten    --     94.8379                58.9036                64.4687

 - Thermochemistry -
 -------------------
 Temperature   298.150 Kelvin.  Pressure   1.00000 Atm.
 Atom     1 has atomic number  6 and mass  12.00000

 Molecular mass:   154.02661 amu.
 Principal axes and moments of inertia in atomic units:
                           1         2         3
     Eigenvalues --  1030.251141977.504063007.75518
           X            0.99972  -0.02373  -0.00000
           Y            0.02373   0.99972  -0.00000
           Z            0.00000   0.00000   1.00000
 This molecule is an asymmetric top.
 Rotational symmetry number  1.
 Warning -- assumption of classical behavior for rotation
           may cause significant error
 Rotational temperatures (Kelvin)      0.08407     0.04380     0.02880
 Rotational constants (GHZ):           1.75175     0.91264     0.60003
 Zero-point vibrational energy     323500.7 (Joules/Mol)
                                   77.31852 (Kcal/Mol)
 Warning -- explicit consideration of  15 degrees of freedom as
           vibrations may cause significant error
 Vibrational temperatures:     35.92   173.10   244.22   285.44   377.39
          (Kelvin)            464.08   505.74   533.73   569.95   579.47
                              627.34   694.11   786.40   787.96   850.81
                              952.91   981.15  1051.69  1139.88  1151.58
                             1179.40  1303.65  1342.51  1371.85  1531.01
                             1655.94  1690.90  1712.21  1723.10  1836.21
                             1873.85  1912.91  1947.61  1988.82  2134.43
                             2214.73  2358.41  2407.49  2590.73  4556.75
                             4579.58  4669.99  5428.98  5493.01  5519.31

 Zero-point correction=                           0.123215 (Hartree/Particle)
 Thermal correction to Energy=                    0.132941
 Thermal correction to Enthalpy=                  0.133885
 Thermal correction to Gibbs Free Energy=         0.087491
 Sum of electronic and zero-point Energies=           -571.171789
 Sum of electronic and thermal Energies=              -571.162063
 Sum of electronic and thermal Enthalpies=            -571.161119
 Sum of electronic and thermal Free Energies=         -571.207513

                     E (Thermal)             CV                S
                      KCal/Mol        Cal/Mol-Kelvin    Cal/Mol-Kelvin
 Total                   83.422             37.017             97.644
 Electronic               0.000              0.000              0.000
 Translational            0.889              2.981             41.006
 Rotational               0.889              2.981             30.195
 Vibrational             81.644             31.055             26.443
 Vibration     1          0.593              1.985              6.194
 Vibration     2          0.609              1.932              3.095
 Vibration     3          0.625              1.880              2.438
 Vibration     4          0.637              1.842              2.148
 Vibration     5          0.670              1.742              1.646
 Vibration     6          0.708              1.630              1.297
 Vibration     7          0.728              1.572              1.159
 Vibration     8          0.743              1.532              1.076
 Vibration     9          0.763              1.478              0.977
 Vibration    10          0.768              1.464              0.953
 Vibration    11          0.796              1.392              0.839
 Vibration    12          0.839              1.289              0.704
 Vibration    13          0.902              1.147              0.551
 Vibration    14          0.903              1.145              0.549
 Vibration    15          0.949              1.050              0.465

 Optimization completed.
    -- Stationary point found.
 Normal termination of Gaussian 09 at Wed Jun 19 13:40:36 2024.
