 Gaussian 09, Revision E.01,
 Gaussian 09:  ES64L-G09RevE.01 30-Nov-2015

 -----------------------------
 # opt freq b3pw91/6-31+g(d,p)
 -----------------------------

 ----------
 [No Title]
 ----------
 Symbolic Z-matrix:
 Charge =  0 Multiplicity = 1

 SCF Done:  E(RB3PW91) =  -571.071957072     A.U. after   14 cycles
 SCF Done:  E(RB3PW91) =  -571.072117004     A.U. after   11 cycles
 SCF Done:  E(RB3PW91) =  -571.072128529     A.U. after   11 cycles
 SCF Done:  E(RB3PW91) =  -571.072117032     A.U. after   11 cycles
 SCF Done:  E(RB3PW91) =  -571.072131316     A.U. after   10 cycles
 Optimization completed.
    -- Stationary point found.
 Normal termination of Gaussian 09 at Sat Dec 14 14:04:12 2024.

 ----------------------------------------------------------------------
 #N Geom=AllCheck Guess=TCheck SCRF=Check GenChk RB3PW91/6-31+G(d,p) Fr
 eq
 ----------------------------------------------------------------------

 Structure from the checkpoint file:  "B3PW91DHB.chk"
 ----------
 [No Title]
 ----------
 Charge =  0 Multiplicity = 1

                         Standard orientation:
 ---------------------------------------------------------------------
 Center     Atomic      Atomic             Coordinates (Angstroms)
 Number     Number       Type             X           Y           Z
 ---------------------------------------------------------------------
      1          6           0        0.234076    1.273817    0.000028
      2          6           0        0.467971   -0.118950    0.000079
      3          6           0       -0.627012   -0.995167    0.000071
      4          6           0       -1.933932   -0.522892    0.000012
      5          6           0       -2.161437    0.854624   -0.000037
      6          6           0       -1.085766    1.735987   -0.000023
      7          8           0       -2.941695   -1.447117   -0.000009
      8          6           0        1.844598   -0.672618    0.000130
      9          8           0        1.851461   -2.033070    0.000024
     10          8           0        2.878718   -0.040029   -0.000241
     11          8           0        1.279171    2.136483    0.000044
     12          1           0       -0.453985   -2.064482    0.000113
     13          1           0       -3.176137    1.247487   -0.000089
     14          1           0       -1.274225    2.807625   -0.000057
     15          1           0       -3.796208   -1.001578    0.000074
     16          1           0        2.786631   -2.288216   -0.000171
     17          1           0        0.941701    3.040228    0.000027
 ---------------------------------------------------------------------

 SCF Done:  E(RB3PW91) =  -571.072131316     A.U. after    1 cycles

 The electronic state is 1-A.
 Alpha  occ. eigenvalues --  -19.19220 -19.18924 -19.18851 -19.13295 -10.31308
 Alpha  occ. eigenvalues --  -10.26233 -10.25337 -10.20971 -10.20847 -10.20397
 Alpha  occ. eigenvalues --  -10.19669  -1.11603  -1.08678  -1.08267  -1.02135
 Alpha  occ. eigenvalues --   -0.87832  -0.79216  -0.76030  -0.68299  -0.65146
 Alpha  occ. eigenvalues --   -0.61927  -0.56843  -0.56074  -0.51319  -0.49652
 Alpha  occ. eigenvalues --   -0.48420  -0.46139  -0.45759  -0.43879  -0.43061
 Alpha  occ. eigenvalues --   -0.42410  -0.41021  -0.40065  -0.38069  -0.36834
 Alpha  occ. eigenvalues --   -0.32978  -0.32566  -0.28110  -0.27805  -0.22699
 Alpha virt. eigenvalues --   -0.06209  -0.00890  -0.00272   0.00330   0.01940
 Alpha virt. eigenvalues --    0.02855   0.04313   0.05458   0.06074   0.06459
 Alpha virt. eigenvalues --    0.07274   0.08913   0.09044   0.09942   0.10384

 Mulliken charges:
               1
     1  C   -1.156061
     2  C    0.692558
     3  C   -0.023157
     4  C   -0.471159
     5  C    0.233281
     6  C    0.227297
     7  O   -0.513481
     8  C    0.788392
     9  O   -0.466071
    10  O   -0.443526
    11  O   -0.455675
    12  H    0.190978
    13  H    0.140768
    14  H    0.137041
    15  H    0.361025
    16  H    0.389131
    17  H    0.368661
 Sum of Mulliken charges =  -0.00000

 Dipole moment (field-independent basis, Debye):
    X=             -3.7698    Y=              1.7906    Z=              0.0004  Tot=              4.1734
 Quadrupole moment (field-independent basis, Debye-Ang):
   XX=            -57.6735   YY=            -52.6632   ZZ=            -65.2058
   XY=            -10.0598   XZ=              0.0003   YZ=              0.0003

  Exact polarizability: 128.704  -0.616 110.472  -0.001  -0.001  50.774
 Approx polarizability: 198.944   8.059 181.776  -0.003  -0.004  73.286

                      1                      2                      3
                      A                      A                      A
 Frequencies --     25.5690               119.3353               169.5439
 Red. masses --     11.6554                 5.4645                 5.1793
 Frc consts  --      0.0045                 0.0458                 0.0877
 IR Inten    --      2.2070                 2.8952                 5.3897

                      4                      5                      6
                      A                      A                      A
 Frequencies --    197.2914               274.7292               322.9197
 Red. masses --      7.7013                 1.0994                 6.8460
 Frc consts  --      0.1766                 0.0489                 0.4206
 IR Inten    --      3.1965               108.7954                 0.7918

                      7                      8                      9
                      A                      A                      A
 Frequencies --    356.9392               375.1113               396.5284
 Red. masses --      1.3556                 3.1072                 7.1590
 Frc consts  --      0.1018                 0.2576                 0.6632
 IR Inten    --     79.3988                22.8532                 3.1439

                     10                     11                     12
                      A                      A                      A
 Frequencies --    402.4602               433.7807               482.5532
 Red. masses --      7.7174                 3.0935                 7.9905
 Frc consts  --      0.7365                 0.3430                 1.0963
 IR Inten    --      1.4427                 4.0449                 1.0210

                     13                     14                     15
                      A                      A                      A
 Frequencies --    546.1282               547.9932               595.2995
 Red. masses --      4.0113                 2.2775                 1.3939
 Frc consts  --      0.7049                 0.4030                 0.2910
 IR Inten    --     37.5620                 0.9299               115.3552

                     16                     17                     18
                      A                      A                      A
 Frequencies --    663.2508               682.0085               733.5242
 Red. masses --      4.9019                 4.1503                 5.3921
 Frc consts  --      1.2705                 1.1374                 1.7094
 IR Inten    --     46.4483                20.0062                21.8035

                     19                     20                     21
                      A                      A                      A
 Frequencies --    793.5257               805.3470               818.6453
 Red. masses --      2.6594                 5.8412                 2.4743
 Frc consts  --      0.9866                 2.2321                 0.9770
 IR Inten    --      0.0259                51.0432                63.8708

                     22                     23                     24
                      A                      A                      A
 Frequencies --    902.4121               931.1311               960.6791
 Red. masses --      1.3877                 1.3690                 5.1592
 Frc consts  --      0.6658                 0.6993                 2.8054
 IR Inten    --      7.3785                 4.8953                12.1762

                     25                     26                     27
                      A                      A                      A
 Frequencies --   1072.5673              1156.8843              1179.0477
 Red. masses --      3.4165                 1.7116                 1.5015
 Frc consts  --      2.3157                 1.3497                 1.2298
 IR Inten    --     92.8652                44.4642               332.2517

                     28                     29                     30
                      A                      A                      A
 Frequencies --   1192.5355              1198.9148              1282.8923
 Red. masses --      1.2471                 1.2260                 1.9291
 Frc consts  --      1.0450                 1.0382                 1.8706
 IR Inten    --     31.1276               160.5106                22.2135

                     31                     32                     33
                      A                      A                      A
 Frequencies --   1324.6653              1329.4906              1366.9268
 Red. masses --      8.8508                 1.5028                 2.9429
 Frc consts  --      9.1505                 1.5650                 3.2397
 IR Inten    --      2.3345               243.7683               153.7850

                     34                     35                     36
                      A                      A                      A
 Frequencies --   1402.5327              1491.9514              1549.1726
 Red. masses --      5.2983                 3.5055                 3.2698
 Frc consts  --      6.1406                 4.5973                 4.6235
 IR Inten    --      6.4320                27.2847               201.8175

                     37                     38                     39
                      A                      A                      A
 Frequencies --   1653.0894              1689.0435              1820.0495
 Red. masses --      6.6749                 6.7277                10.1445
 Frc consts  --     10.7470                11.3084                19.7991
 IR Inten    --     66.6920                 5.0187               393.2880

                     40                     41                     42
                      A                      A                      A
 Frequencies --   3177.6994              3193.8511              3253.3403
 Red. masses --      1.0874                 1.0955                 1.0913
 Frc consts  --      6.4696                 6.5839                 6.8055
 IR Inten    --     16.0107                 9.5229                 3.2189

                     43                     44                     45
                      A                      A                      A
 Frequencies --   3801.8584              3850.1883              3869.8394
 Red. masses --      1.0645                 1.0661                 1.0664
 Frc consts  --      9.0656                 9.3112                 9.4092
 IR Inten    --     98.2696                62.6272                68.7145

 - Thermochemistry -
 -------------------
 Temperature   298.150 Kelvin.  Pressure   1.00000 Atm.
 Atom     1 has atomic number  6 and mass  12.00000

 Molecular mass:   154.02661 amu.
 Principal axes and moments of inertia in atomic units:
                           1         2         3
     Eigenvalues --  1025.072501968.141802993.21429
           X            0.99971  -0.02388   0.00001
           Y            0.02388   0.99971   0.00001
           Z           -0.00001  -0.00000   1.00000
 This molecule is an asymmetric top.
 Rotational symmetry number  1.
 Warning -- assumption of classical behavior for rotation
           may cause significant error
 Rotational temperatures (Kelvin)      0.08450     0.04401     0.02894
 Rotational constants (GHZ):           1.76060     0.91698     0.60294
 Zero-point vibrational energy     325343.9 (Joules/Mol)
                                   77.75905 (Kcal/Mol)
 Warning -- explicit consideration of  15 degrees of freedom as
           vibrations may cause significant error
 Vibrational temperatures:     36.79   171.70   243.94   283.86   395.27
          (Kelvin)            464.61   513.56   539.70   570.52   579.05
                              624.11   694.29   785.76   788.44   856.50
                              954.27   981.26  1055.38  1141.71  1158.71
                             1177.85  1298.37  1339.69  1382.20  1543.18
                             1664.50  1696.38  1715.79  1724.97  1845.79
                             1905.90  1912.84  1966.70  2017.93  2146.58
                             2228.91  2378.42  2430.15  2618.64  4571.99
                             4595.23  4680.83  5470.02  5539.56  5567.83

 Zero-point correction=                           0.123917 (Hartree/Particle)
 Thermal correction to Energy=                    0.133610
 Thermal correction to Enthalpy=                  0.134554
 Thermal correction to Gibbs Free Energy=         0.088245
 Sum of electronic and zero-point Energies=           -570.948214
 Sum of electronic and thermal Energies=              -570.938522
 Sum of electronic and thermal Enthalpies=            -570.937577
 Sum of electronic and thermal Free Energies=         -570.983886

                     E (Thermal)             CV                S
                      KCal/Mol        Cal/Mol-Kelvin    Cal/Mol-Kelvin
 Total                   83.841             36.902             97.465
 Electronic               0.000              0.000              0.000
 Translational            0.889              2.981             41.006
 Rotational               0.889              2.981             30.180
 Vibrational             82.064             30.940             26.279
 Vibration     1          0.593              1.985              6.147
 Vibration     2          0.609              1.933              3.111
 Vibration     3          0.625              1.880              2.441
 Vibration     4          0.637              1.844              2.158
 Vibration     5          0.677              1.720              1.566
 Vibration     6          0.708              1.630              1.295
 Vibration     7          0.732              1.561              1.135
 Vibration     8          0.746              1.523              1.059
 Vibration     9          0.763              1.478              0.975
 Vibration    10          0.768              1.465              0.954
 Vibration    11          0.795              1.397              0.846
 Vibration    12          0.839              1.289              0.703
 Vibration    13          0.901              1.148              0.552
 Vibration    14          0.903              1.144              0.548
 Vibration    15          0.953              1.042              0.458

 Optimization completed.
    -- Stationary point found.
 Normal termination of Gaussian 09 at Sat Dec 14 14:04:59 2024.
