 Gaussian 09, Revision E.01,
 Gaussian 09:  ES64L-G09RevE.01 30-Nov-2015

 -----------------------------
 # opt freq b3pw91/6-31+g(d,p)
 -----------------------------

 ----------
 [No Title]
 ----------
 Symbolic Z-matrix:
 Charge =  1 Multiplicity = 1

 SCF Done:  E(RB3PW91) =  -571.405673042     A.U. after   15 cycles
 SCF Done:  E(RB3PW91) =  -571.407251430     A.U. after   11 cycles
 SCF Done:  E(RB3PW91) =  -571.407300786     A.U. after   10 cycles
 SCF Done:  E(RB3PW91) =  -571.407302865     A.U. after   10 cycles
 SCF Done:  E(RB3PW91) =  -571.407303394     A.U. after    8 cycles
 Optimization completed.
    -- Stationary point found.
 Normal termination of Gaussian 09 at Sat Dec 14 14:54:42 2024.

 ----------------------------------------------------------------------
 #N Geom=AllCheck Guess=TCheck SCRF=Check GenChk RB3PW91/6-31+G(d,p) Fr
 eq
 ----------------------------------------------------------------------

 Structure from the checkpoint file:  "B3PW91DHByanggd3.chk"
 ----------
 [No Title]
 ----------
 Charge =  1 Multiplicity = 1

                         Standard orientation:
 ---------------------------------------------------------------------
 Center     Atomic      Atomic             Coordinates (Angstroms)
 Number     Number       Type             X           Y           Z
 ---------------------------------------------------------------------
      1          6           0       -0.217736    1.275847    0.000007
      2          6           0       -0.425217   -0.136504    0.000005
      3          6           0        0.691914   -1.013893   -0.000010
      4          6           0        1.980241   -0.517781   -0.000019
      5          6           0        2.172369    0.879831   -0.000015
      6          6           0        1.097679    1.752355   -0.000002
      7          8           0        2.994365   -1.406772   -0.000037
      8          6           0       -1.722573   -0.715889    0.000024
      9          8           0       -1.807203   -2.022350    0.000085
     10          8           0       -2.785930    0.034604   -0.000061
     11          8           0       -1.274312    2.095558    0.000023
     12          1           0        0.543625   -2.086950   -0.000015
     13          1           0        3.180649    1.287714   -0.000026
     14          1           0        1.276969    2.824189    0.000001
     15          1           0        3.856105   -0.972067   -0.000022
     16          1           0       -2.704799   -2.388962   -0.000004
     17          1           0       -3.633739   -0.437531    0.000019
     18          1           0       -0.994232    3.021501    0.000033
 ---------------------------------------------------------------------

 SCF Done:  E(RB3PW91) =  -571.407303394     A.U. after    1 cycles

 The electronic state is 1-A.
 Alpha  occ. eigenvalues --  -19.41491 -19.41490 -19.34901 -19.31729 -10.54437
 Alpha  occ. eigenvalues --  -10.42944 -10.39875 -10.37842 -10.35976 -10.34945
 Alpha  occ. eigenvalues --  -10.34941  -1.36058  -1.28065  -1.24998  -1.21690
 Alpha  occ. eigenvalues --   -1.03779  -0.97284  -0.91443  -0.88477  -0.84386
 Alpha  occ. eigenvalues --   -0.80211  -0.78974  -0.73778  -0.71776  -0.68202
 Alpha  occ. eigenvalues --   -0.68062  -0.66695  -0.63323  -0.60136  -0.59063
 Alpha  occ. eigenvalues --   -0.58872  -0.58193  -0.56887  -0.56730  -0.55493
 Alpha  occ. eigenvalues --   -0.52273  -0.50463  -0.47858  -0.44006  -0.37407
 Alpha virt. eigenvalues --   -0.25830  -0.17167  -0.15888  -0.12847  -0.11575
 Alpha virt. eigenvalues --   -0.10896  -0.09861  -0.08664  -0.07574  -0.06690
 Alpha virt. eigenvalues --   -0.05291  -0.04050  -0.03008  -0.02836  -0.02346

 Mulliken charges:
               1
     1  C   -0.873064
     2  C    0.390477
     3  C    0.034426
     4  C   -0.527454
     5  C    0.302123
     6  C    0.232469
     7  O   -0.482591
     8  C    0.932248
     9  O   -0.377324
    10  O   -0.378194
    11  O   -0.465754
    12  H    0.208240
    13  H    0.185469
    14  H    0.180814
    15  H    0.383712
    16  H    0.409237
    17  H    0.425983
    18  H    0.419184
 Sum of Mulliken charges =   1.00000

 Dipole moment (field-independent basis, Debye):
    X=             -3.8767    Y=              0.3509    Z=              0.0001  Tot=              3.8926
 Quadrupole moment (field-independent basis, Debye-Ang):
   XX=            -13.3839   YY=            -39.9053   ZZ=            -63.3348
   XY=             16.7863   XZ=             -0.0002   YZ=              0.0004

  Exact polarizability: 137.479   8.853 112.769   0.001   0.000  46.089
 Approx polarizability: 222.757  17.345 199.033  -0.001  -0.001  67.106

                      1                      2                      3
                      A                      A                      A
 Frequencies --     25.5968               108.8848               158.2416
 Red. masses --     12.4321                 5.0029                 4.8946
 Frc consts  --      0.0048                 0.0349                 0.0722
 IR Inten    --      0.0783                13.6200                 9.2453

                      4                      5                      6
                      A                      A                      A
 Frequencies --    209.8990               292.7935               315.9521
 Red. masses --      6.2832                 1.0671                 1.1531
 Frc consts  --      0.1631                 0.0539                 0.0678
 IR Inten    --      9.8544                 8.1500               133.4722

                      7                      8                      9
                      A                      A                      A
 Frequencies --    338.6340               359.6698               393.1774
 Red. masses --      6.2547                 4.0722                 7.4657
 Frc consts  --      0.4226                 0.3104                 0.6800
 IR Inten    --      0.2059                 0.8405                 0.5971

                     10                     11                     12
                      A                      A                      A
 Frequencies --    409.1030               428.6922               447.7536
 Red. masses --      5.9000                 2.1675                 1.1902
 Frc consts  --      0.5818                 0.2347                 0.1406
 IR Inten    --      0.8163                72.9270                42.8948

                     13                     14                     15
                      A                      A                      A
 Frequencies --    476.7930               506.7999               549.5858
 Red. masses --      7.8321                 1.3543                 2.6459
 Frc consts  --      1.0490                 0.2049                 0.4709
 IR Inten    --      2.2657               179.4513                98.2825

                     16                     17                     18
                      A                      A                      A
 Frequencies --    562.0424               653.8790               681.5868
 Red. masses --      4.0343                 4.2294                 5.1043
 Frc consts  --      0.7509                 1.0654                 1.3971
 IR Inten    --     20.5824                48.6313                 1.9484

                     19                     20                     21
                      A                      A                      A
 Frequencies --    733.8932               778.5668               813.6007
 Red. masses --      5.2505                 5.3881                 5.7803
 Frc consts  --      1.6661                 1.9243                 2.2544
 IR Inten    --     13.6411                 0.0208                39.0086

                     22                     23                     24
                      A                      A                      A
 Frequencies --    841.5277               887.7903               969.0004
 Red. masses --      1.6612                 1.5144                 1.3366
 Frc consts  --      0.6931                 0.7033                 0.7394
 IR Inten    --     48.2687                15.9500                 0.5783

                     25                     26                     27
                      A                      A                      A
 Frequencies --    970.1785              1100.5737              1115.6444
 Red. masses --      4.3931                 3.0071                 1.1179
 Frc consts  --      2.4363                 2.1460                 0.8198
 IR Inten    --     21.8126               132.1613               177.3558

                     28                     29                     30
                      A                      A                      A
 Frequencies --   1156.0094              1186.8361              1196.2257
 Red. masses --      1.7759                 1.3800                 1.2156
 Frc consts  --      1.3983                 1.1453                 1.0248
 IR Inten    --    172.6407               262.0880                51.7660

                     31                     32                     33
                      A                      A                      A
 Frequencies --   1205.1624              1297.7036              1340.3549
 Red. masses --      1.2333                 1.7755                 3.0509
 Frc consts  --      1.0554                 1.7617                 3.2293
 IR Inten    --    171.3666                 3.6617               183.4721

                     34                     35                     36
                      A                      A                      A
 Frequencies --   1346.7984              1434.0717              1461.4966
 Red. masses --      2.8857                 4.7389                 3.4901
 Frc consts  --      3.0839                 5.7420                 4.3922
 IR Inten    --    145.0763                67.7515                10.9708

                     37                     38                     39
                      A                      A                      A
 Frequencies --   1522.3221              1566.0026              1617.5573
 Red. masses --      4.7784                 4.5030                 4.6811
 Frc consts  --      6.5244                 6.5063                 7.2163
 IR Inten    --     34.4718               529.8319               567.8574

                     40                     41                     42
                      A                      A                      A
 Frequencies --   1627.6782              1698.4538              3199.4147
 Red. masses --      6.0532                 6.3840                 1.0895
 Frc consts  --      9.4487                10.8505                 6.5705
 IR Inten    --    239.3056                43.4807                 2.6771

                     43                     44                     45
                      A                      A                      A
 Frequencies --   3212.7303              3255.7635              3783.9910
 Red. masses --      1.0962                 1.0922                 1.0681
 Frc consts  --      6.6661                 6.8209                 9.0107
 IR Inten    --      0.4905                 8.0538               118.8916

                     46                     47                     48
                      A                      A                      A
 Frequencies --   3801.3460              3823.7158              3856.3879
 Red. masses --      1.0667                 1.0666                 1.0670
 Frc consts  --      9.0819                 9.1883                 9.3494
 IR Inten    --    485.5078               163.8573               138.6608

 - Thermochemistry -
 -------------------
 Temperature   298.150 Kelvin.  Pressure   1.00000 Atm.
 Atom     1 has atomic number  6 and mass  12.00000

 Molecular mass:   155.03443 amu.
 Principal axes and moments of inertia in atomic units:
                           1         2         3
     Eigenvalues --  1017.367191989.135423006.50261
           X            0.99959   0.02868   0.00001
           Y           -0.02868   0.99959   0.00000
           Z           -0.00001  -0.00000   1.00000
 This molecule is an asymmetric top.
 Rotational symmetry number  1.
 Warning -- assumption of classical behavior for rotation
           may cause significant error
 Rotational temperatures (Kelvin)      0.08514     0.04354     0.02881
 Rotational constants (GHZ):           1.77393     0.90730     0.60028
 Zero-point vibrational energy     357204.2 (Joules/Mol)
                                   85.37386 (Kcal/Mol)
 Warning -- explicit consideration of  16 degrees of freedom as
           vibrations may cause significant error
 Vibrational temperatures:     36.83   156.66   227.67   302.00   421.26
          (Kelvin)            454.58   487.22   517.48   565.69   588.61
                              616.79   644.22   686.00   729.17   790.73
                              808.65   940.78   980.65  1055.91  1120.18
                             1170.59  1210.77  1277.33  1394.17  1395.87
                             1583.48  1605.16  1663.24  1707.59  1721.10
                             1733.96  1867.10  1928.47  1937.74  2063.31
                             2102.76  2190.28  2253.13  2327.30  2341.86
                             2443.69  4603.24  4622.40  4684.31  5444.31
                             5469.28  5501.47  5548.48

 Zero-point correction=                           0.136052 (Hartree/Particle)
 Thermal correction to Energy=                    0.146113
 Thermal correction to Enthalpy=                  0.147057
 Thermal correction to Gibbs Free Energy=         0.100135
 Sum of electronic and zero-point Energies=           -571.271251
 Sum of electronic and thermal Energies=              -571.261191
 Sum of electronic and thermal Enthalpies=            -571.260246
 Sum of electronic and thermal Free Energies=         -571.307169

                     E (Thermal)             CV                S
                      KCal/Mol        Cal/Mol-Kelvin    Cal/Mol-Kelvin
 Total                   91.687             38.634             98.757
 Electronic               0.000              0.000              0.000
 Translational            0.889              2.981             41.025
 Rotational               0.889              2.981             30.188
 Vibrational             89.910             32.672             27.544
 Vibration     1          0.593              1.985              6.144
 Vibration     2          0.606              1.942              3.289
 Vibration     3          0.621              1.893              2.571
 Vibration     4          0.642              1.826              2.045
 Vibration     5          0.688              1.687              1.458
 Vibration     6          0.703              1.643              1.331
 Vibration     7          0.719              1.598              1.219
 Vibration     8          0.734              1.555              1.124
 Vibration     9          0.760              1.485              0.988
 Vibration    10          0.773              1.450              0.930
 Vibration    11          0.790              1.408              0.863
 Vibration    12          0.807              1.366              0.803
 Vibration    13          0.833              1.302              0.719
 Vibration    14          0.862              1.235              0.641
 Vibration    15          0.905              1.141              0.545
 Vibration    16          0.918              1.113              0.520

 Optimization completed.
    -- Stationary point found.
 Normal termination of Gaussian 09 at Sat Dec 14 14:55:26 2024.
