 Gaussian 09, Revision E.01,
 Gaussian 09:  ES64L-G09RevE.01 30-Nov-2015

 --------------------------------
 # opt freq cam-b3lyp/6-31+g(d,p)
 --------------------------------

 ----------
 [No Title]
 ----------
 Symbolic Z-matrix:
 Charge =  1 Multiplicity = 1

 SCF Done:  E(RCAM-B3LYP) =  -571.378105890     A.U. after   16 cycles
 SCF Done:  E(RCAM-B3LYP) =  -571.378565592     A.U. after   13 cycles
 SCF Done:  E(RCAM-B3LYP) =  -571.378588759     A.U. after   11 cycles
 SCF Done:  E(RCAM-B3LYP) =  -571.378596896     A.U. after   11 cycles
 SCF Done:  E(RCAM-B3LYP) =  -571.378597250     A.U. after    9 cycles
 Optimization completed.
    -- Stationary point found.
 Normal termination of Gaussian 09 at Wed Jun 19 15:00:43 2024.

 ----------------------------------------------------------------------
 #N Geom=AllCheck Guess=TCheck SCRF=Check GenChk RCAM-B3LYP/6-31+G(d,p)
  Freq
 ----------------------------------------------------------------------

 Structure from the checkpoint file:  "camb3lypDHByanggd3.chk"
 ----------
 [No Title]
 ----------
 Charge =  1 Multiplicity = 1

                         Standard orientation:
 ---------------------------------------------------------------------
 Center     Atomic      Atomic             Coordinates (Angstroms)
 Number     Number       Type             X           Y           Z
 ---------------------------------------------------------------------
      1          6           0       -0.217940    1.269071    0.000006
      2          6           0       -0.422201   -0.136201   -0.000002
      3          6           0        0.694522   -1.011445   -0.000011
      4          6           0        1.975649   -0.513512   -0.000016
      5          6           0        2.165598    0.880508   -0.000013
      6          6           0        1.093217    1.749589    0.000001
      7          8           0        2.994754   -1.400309   -0.000039
      8          6           0       -1.718479   -0.714276    0.000007
      9          8           0       -1.805308   -2.016858    0.000061
     10          8           0       -2.779824    0.031724   -0.000032
     11          8           0       -1.276205    2.087094    0.000019
     12          1           0        0.549282   -2.083999   -0.000016
     13          1           0        3.173245    1.287168   -0.000022
     14          1           0        1.267977    2.820955    0.000004
     15          1           0        3.859236   -0.970691    0.000028
     16          1           0       -2.700365   -2.392052    0.000002
     17          1           0       -3.632642   -0.433287    0.000069
     18          1           0       -1.006262    3.016292    0.000033
 ---------------------------------------------------------------------

 SCF Done:  E(RCAM-B3LYP) =  -571.378597250     A.U. after    1 cycles

 The electronic state is 1-A.
 Alpha  occ. eigenvalues --  -19.50118 -19.50111 -19.42918 -19.39558 -10.64040
 Alpha  occ. eigenvalues --  -10.51635 -10.48261 -10.46109 -10.44505 -10.43446
 Alpha  occ. eigenvalues --  -10.43304  -1.44317  -1.35985  -1.32446  -1.28876
 Alpha  occ. eigenvalues --   -1.11824  -1.05142  -0.99049  -0.95949  -0.91702
 Alpha  occ. eigenvalues --   -0.87537  -0.85950  -0.80856  -0.78433  -0.75620
 Alpha  occ. eigenvalues --   -0.75159  -0.73591  -0.70008  -0.66809  -0.65922
 Alpha  occ. eigenvalues --   -0.65365  -0.64795  -0.63552  -0.63230  -0.62049
 Alpha  occ. eigenvalues --   -0.58486  -0.56675  -0.54063  -0.49179  -0.42287
 Alpha virt. eigenvalues --   -0.21344  -0.14813  -0.10866  -0.09311  -0.08421
 Alpha virt. eigenvalues --   -0.07521  -0.07437  -0.06626  -0.05484  -0.05003
 Alpha virt. eigenvalues --   -0.03238  -0.02151  -0.01517  -0.00727  -0.00142

 Mulliken charges:
               1
     1  C   -0.574185
     2  C    0.241068
     3  C   -0.085556
     4  C   -0.215414
     5  C    0.196378
     6  C    0.093751
     7  O   -0.526978
     8  C    1.012568
     9  O   -0.404571
    10  O   -0.394356
    11  O   -0.512141
    12  H    0.193718
    13  H    0.167840
    14  H    0.162583
    15  H    0.383579
    16  H    0.412218
    17  H    0.428778
    18  H    0.420720
 Sum of Mulliken charges =   1.00000

 Dipole moment (field-independent basis, Debye):
    X=             -4.1094    Y=              0.3199    Z=              0.0002  Tot=              4.1219
 Quadrupole moment (field-independent basis, Debye-Ang):
   XX=            -14.3188   YY=            -40.9854   ZZ=            -63.7612
   XY=             17.4315   XZ=             -0.0001   YZ=              0.0001

  Exact polarizability: 134.347   8.890 111.608  -0.000  -0.000  46.579
 Approx polarizability: 156.946   7.352 140.898  -0.000  -0.000  59.258

                      1                      2                      3
                      A                      A                      A
 Frequencies --     39.1864               114.4752               161.7780
 Red. masses --     12.4119                 4.9956                 5.1921
 Frc consts  --      0.0112                 0.0386                 0.0801
 IR Inten    --      0.0187                14.2403                 7.9507

                      4                      5                      6
                      A                      A                      A
 Frequencies --    214.2118               287.9195               314.5366
 Red. masses --      6.2521                 1.1204                 1.0696
 Frc consts  --      0.1690                 0.0547                 0.0623
 IR Inten    --     10.7295               137.3186                11.1551

                      7                      8                      9
                      A                      A                      A
 Frequencies --    344.3686               366.2766               396.6522
 Red. masses --      6.2006                 4.2198                 7.3845
 Frc consts  --      0.4332                 0.3335                 0.6845
 IR Inten    --      0.3298                 0.0224                 0.7599

                     10                     11                     12
                      A                      A                      A
 Frequencies --    414.2284               435.3142               445.2336
 Red. masses --      5.8875                 1.8190                 1.3475
 Frc consts  --      0.5952                 0.2031                 0.1574
 IR Inten    --      0.8825                98.2703                20.8828

                     13                     14                     15
                      A                      A                      A
 Frequencies --    483.3330               523.1122               559.6565
 Red. masses --      7.9128                 1.3558                 2.5720
 Frc consts  --      1.0891                 0.2186                 0.4746
 IR Inten    --      2.2991               165.4099               125.5981

                     16                     17                     18
                      A                      A                      A
 Frequencies --    568.8665               661.4418               697.4309
 Red. masses --      3.9794                 4.1708                 4.8861
 Frc consts  --      0.7587                 1.0751                 1.4003
 IR Inten    --     19.1624                53.5498                 3.5317

                     19                     20                     21
                      A                      A                      A
 Frequencies --    742.7486               798.9428               822.8678
 Red. masses --      5.1988                 5.0117                 5.6983
 Frc consts  --      1.6898                 1.8848                 2.2733
 IR Inten    --     18.0051                 0.4865                40.0406

                     22                     23                     24
                      A                      A                      A
 Frequencies --    861.0520               914.8678               981.4640
 Red. masses --      1.7073                 1.5278                 4.3694
 Frc consts  --      0.7458                 0.7534                 2.4798
 IR Inten    --     50.3339                13.6889                24.5586

                     25                     26                     27
                      A                      A                      A
 Frequencies --    995.8404              1109.7013              1114.6344
 Red. masses --      1.3453                 1.1586                 2.5858
 Frc consts  --      0.7860                 0.8406                 1.8928
 IR Inten    --      0.5686               149.4813               175.5570

                     28                     29                     30
                      A                      A                      A
 Frequencies --   1163.3363              1187.7503              1195.6613
 Red. masses --      1.7654                 1.4208                 1.2536
 Frc consts  --      1.4077                 1.1810                 1.0559
 IR Inten    --    262.2539               267.6517                90.3336

                     31                     32                     33
                      A                      A                      A
 Frequencies --   1209.0632              1305.7450              1335.7707
 Red. masses --      1.1955                 1.8337                 9.3980
 Frc consts  --      1.0296                 1.8420                 9.8799
 IR Inten    --    119.5198                 3.0846               104.1405

                     34                     35                     36
                      A                      A                      A
 Frequencies --   1353.9682              1424.7973              1476.8423
 Red. masses --      1.7204                 4.6143                 3.6560
 Frc consts  --      1.8582                 5.5190                 4.6982
 IR Inten    --    261.4771                62.9944                11.9704

                     37                     38                     39
                      A                      A                      A
 Frequencies --   1537.6212              1579.5135              1625.3343
 Red. masses --      4.6489                 4.3468                 4.8467
 Frc consts  --      6.4759                 6.3895                 7.5437
 IR Inten    --     42.3174               530.6210               846.4174

                     40                     41                     42
                      A                      A                      A
 Frequencies --   1654.1238              1722.5631              3212.3370
 Red. masses --      6.5207                 6.4710                 1.0903
 Frc consts  --     10.5119                11.3128                 6.6291
 IR Inten    --    110.7402                39.1238                 2.0302

                     43                     44                     45
                      A                      A                      A
 Frequencies --   3225.7954              3266.6614              3783.8831
 Red. masses --      1.0966                 1.0928                 1.0682
 Frc consts  --      6.7233                 6.8707                 9.0112
 IR Inten    --      0.9348                 9.2314               113.2399

                     46                     47                     48
                      A                      A                      A
 Frequencies --   3802.1338              3834.0906              3866.1836
 Red. masses --      1.0668                 1.0667                 1.0671
 Frc consts  --      9.0866                 9.2391                 9.3979
 IR Inten    --    549.0285               181.1863               145.7639

 - Thermochemistry -
 -------------------
 Temperature   298.150 Kelvin.  Pressure   1.00000 Atm.
 Atom     1 has atomic number  6 and mass  12.00000

 Molecular mass:   155.03443 amu.
 Principal axes and moments of inertia in atomic units:
                           1         2         3
     Eigenvalues --  1011.247201984.011262995.25846
           X            0.99960   0.02829   0.00001
           Y           -0.02829   0.99960   0.00000
           Z           -0.00001  -0.00000   1.00000
 This molecule is an asymmetric top.
 Rotational symmetry number  1.
 Warning -- assumption of classical behavior for rotation
           may cause significant error
 Rotational temperatures (Kelvin)      0.08565     0.04366     0.02892
 Rotational constants (GHZ):           1.78467     0.90964     0.60253
 Zero-point vibrational energy     359677.1 (Joules/Mol)
                                   85.96489 (Kcal/Mol)
 Warning -- explicit consideration of  16 degrees of freedom as
           vibrations may cause significant error
 Vibrational temperatures:     56.38   164.70   232.76   308.20   414.25
          (Kelvin)            452.55   495.47   526.99   570.69   595.98
                              626.32   640.59   695.41   752.64   805.22
                              818.47   951.67  1003.45  1068.65  1149.50
                             1183.92  1238.86  1316.29  1412.11  1432.79
                             1596.61  1603.71  1673.78  1708.91  1720.29
                             1739.57  1878.67  1921.87  1948.06  2049.96
                             2124.84  2212.29  2272.56  2338.49  2379.91
                             2478.38  4621.83  4641.19  4699.99  5444.16
                             5470.42  5516.39  5562.57

 Zero-point correction=                           0.136994 (Hartree/Particle)
 Thermal correction to Energy=                    0.146916
 Thermal correction to Enthalpy=                  0.147860
 Thermal correction to Gibbs Free Energy=         0.101557
 Sum of electronic and zero-point Energies=           -571.241603
 Sum of electronic and thermal Energies=              -571.231681
 Sum of electronic and thermal Enthalpies=            -571.230737
 Sum of electronic and thermal Free Energies=         -571.277041

                     E (Thermal)             CV                S
                      KCal/Mol        Cal/Mol-Kelvin    Cal/Mol-Kelvin
 Total                   92.191             38.229             97.455
 Electronic               0.000              0.000              0.000
 Translational            0.889              2.981             41.025
 Rotational               0.889              2.981             30.175
 Vibrational             90.414             32.268             26.254
 Vibration     1          0.594              1.981              5.300
 Vibration     2          0.607              1.937              3.192
 Vibration     3          0.622              1.889              2.529
 Vibration     4          0.644              1.819              2.007
 Vibration     5          0.685              1.696              1.486
 Vibration     6          0.702              1.646              1.338
 Vibration     7          0.723              1.587              1.192
 Vibration     8          0.739              1.542              1.095
 Vibration     9          0.763              1.477              0.975
 Vibration    10          0.778              1.439              0.912
 Vibration    11          0.796              1.393              0.841
 Vibration    12          0.805              1.371              0.810
 Vibration    13          0.840              1.287              0.701
 Vibration    14          0.878              1.199              0.603
 Vibration    15          0.915              1.119              0.525
 Vibration    16          0.925              1.099              0.506

 Optimization completed.
    -- Stationary point found.
 Normal termination of Gaussian 09 at Wed Jun 19 15:02:25 2024.
