 Gaussian 09, Revision E.01,
 Gaussian 09:  ES64L-G09RevE.01 30-Nov-2015

 --------------------------------
 # opt freq cam-b3lyp/6-31+g(d,p)
 --------------------------------

 ----------
 [No Title]
 ----------
 Symbolic Z-matrix:
 Charge =  0 Multiplicity = 1

 SCF Done:  E(RCAM-B3LYP) =  -571.049611303     A.U. after   15 cycles
 SCF Done:  E(RCAM-B3LYP) =  -571.050050711     A.U. after   12 cycles
 SCF Done:  E(RCAM-B3LYP) =  -571.050065000     A.U. after   11 cycles
 SCF Done:  E(RCAM-B3LYP) =  -571.050046391     A.U. after   12 cycles
 SCF Done:  E(RCAM-B3LYP) =  -571.050068383     A.U. after   11 cycles
 Optimization completed.
    -- Stationary point found.
 Normal termination of Gaussian 09 at Wed Jun 19 13:53:12 2024.

 ----------------------------------------------------------------------
 #N Geom=AllCheck Guess=TCheck SCRF=Check GenChk RCAM-B3LYP/6-31+G(d,p)
  Freq
 ----------------------------------------------------------------------

 Structure from the checkpoint file:  "camb3lypDHBgd3.chk"
 ----------
 [No Title]
 ----------
 Charge =  0 Multiplicity = 1

                         Standard orientation:
 ---------------------------------------------------------------------
 Center     Atomic      Atomic             Coordinates (Angstroms)
 Number     Number       Type             X           Y           Z
 ---------------------------------------------------------------------
      1          6           0        0.231346    1.268957    0.000032
      2          6           0        0.463863   -0.117971    0.000054
      3          6           0       -0.626863   -0.993350    0.000042
      4          6           0       -1.928910   -0.519658   -0.000004
      5          6           0       -2.156706    0.852928   -0.000033
      6          6           0       -1.083529    1.732950   -0.000004
      7          8           0       -2.938894   -1.443283   -0.000051
      8          6           0        1.842047   -0.671010    0.000084
      9          8           0        1.851844   -2.028075    0.000090
     10          8           0        2.872075   -0.039742   -0.000246
     11          8           0        1.278534    2.130516    0.000062
     12          1           0       -0.455593   -2.061788    0.000069
     13          1           0       -3.171243    1.242837   -0.000081
     14          1           0       -1.269041    2.803719   -0.000019
     15          1           0       -3.797295   -1.005138    0.000178
     16          1           0        2.785339   -2.290115   -0.000072
     17          1           0        0.951866    3.038077    0.000068
 ---------------------------------------------------------------------

 SCF Done:  E(RCAM-B3LYP) =  -571.050068383     A.U. after    1 cycles

 The electronic state is 1-A.
 Alpha  occ. eigenvalues --  -19.27640 -19.26996 -19.26908 -19.21819 -10.40581
 Alpha  occ. eigenvalues --  -10.34877 -10.33912 -10.29456 -10.29407 -10.28899
 Alpha  occ. eigenvalues --  -10.28241  -1.19666  -1.16147  -1.15700  -1.09997
 Alpha  occ. eigenvalues --   -0.95966  -0.87119  -0.83693  -0.75737  -0.72476
 Alpha  occ. eigenvalues --   -0.68932  -0.63891  -0.62799  -0.58286  -0.56458
 Alpha  occ. eigenvalues --   -0.55476  -0.53443  -0.52493  -0.50439  -0.50011
 Alpha  occ. eigenvalues --   -0.48880  -0.47742  -0.46739  -0.44447  -0.43264
 Alpha  occ. eigenvalues --   -0.39421  -0.39035  -0.34355  -0.33400  -0.27762
 Alpha virt. eigenvalues --   -0.01616   0.01645   0.02369   0.03713   0.03753
 Alpha virt. eigenvalues --    0.04863   0.07157   0.07605   0.07740   0.08997
 Alpha virt. eigenvalues --    0.09379   0.10400   0.10412   0.11904   0.12157

 Mulliken charges:
               1
     1  C   -0.850087
     2  C    0.549734
     3  C   -0.147318
     4  C   -0.155247
     5  C    0.116379
     6  C    0.078463
     7  O   -0.555685
     8  C    0.876987
     9  O   -0.498678
    10  O   -0.463016
    11  O   -0.500233
    12  H    0.177495
    13  H    0.123740
    14  H    0.120405
    15  H    0.361950
    16  H    0.393558
    17  H    0.371551
 Sum of Mulliken charges =  -0.00000

 Dipole moment (field-independent basis, Debye):
    X=             -3.7672    Y=              1.8008    Z=              0.0007  Tot=              4.1755
 Quadrupole moment (field-independent basis, Debye-Ang):
   XX=            -58.8352   YY=            -53.7174   ZZ=            -65.6700
   XY=            -10.5396   XZ=             -0.0005   YZ=              0.0002

  Exact polarizability: 125.169  -0.260 108.594  -0.001  -0.001  51.287
 Approx polarizability: 145.730   5.901 135.588  -0.002  -0.002  64.351

                      1                      2                      3
                      A                      A                      A
 Frequencies --     24.5257               123.8616               172.6964
 Red. masses --     11.5973                 5.4821                 5.1158
 Frc consts  --      0.0041                 0.0496                 0.0899
 IR Inten    --      2.3212                 3.2849                 5.3604

                      4                      5                      6
                      A                      A                      A
 Frequencies --    201.4055               252.6078               327.1878
 Red. masses --      7.6570                 1.0992                 6.7956
 Frc consts  --      0.1830                 0.0413                 0.4286
 IR Inten    --      3.3467               113.2931                 0.7242

                      7                      8                      9
                      A                      A                      A
 Frequencies --    345.5629               378.3751               400.0792
 Red. masses --      1.1324                 5.7055                 7.6211
 Frc consts  --      0.0797                 0.4813                 0.7187
 IR Inten    --    105.0867                 3.2971                 3.4546

                     10                     11                     12
                      A                      A                      A
 Frequencies --    407.1033               443.3216               489.0718
 Red. masses --      7.2423                 3.0246                 8.0041
 Frc consts  --      0.7072                 0.3502                 1.1280
 IR Inten    --      1.7177                 5.4588                 1.1721

                     13                     14                     15
                      A                      A                      A
 Frequencies --    553.0087               556.4490               601.6437
 Red. masses --      3.9698                 2.1505                 1.4428
 Frc consts  --      0.7153                 0.3923                 0.3077
 IR Inten    --     37.1950                 0.0007               120.5622

                     16                     17                     18
                      A                      A                      A
 Frequencies --    671.5609               699.3729               742.5991
 Red. masses --      4.8467                 4.0207                 5.3799
 Frc consts  --      1.2878                 1.1587                 1.7480
 IR Inten    --     49.1108                20.2443                24.0244

                     19                     20                     21
                      A                      A                      A
 Frequencies --    809.4324               813.7356               840.3625
 Red. masses --      2.9541                 5.8056                 2.2407
 Frc consts  --      1.1403                 2.2650                 0.9323
 IR Inten    --      1.0864                54.6627                64.3533

                     22                     23                     24
                      A                      A                      A
 Frequencies --    931.7373               958.3412               972.1972
 Red. masses --      1.4309                 1.3714                 5.1851
 Frc consts  --      0.7319                 0.7421                 2.8875
 IR Inten    --      6.9670                 4.3776                12.2942

                     25                     26                     27
                      A                      A                      A
 Frequencies --   1087.6324              1167.8326              1183.1895
 Red. masses --      3.2037                 1.7294                 1.3707
 Frc consts  --      2.2329                 1.3896                 1.1306
 IR Inten    --     82.5139                47.5102               226.6660

                     28                     29                     30
                      A                      A                      A
 Frequencies --   1198.1869              1202.9348              1291.0362
 Red. masses --      1.4372                 1.1769                 1.9482
 Frc consts  --      1.2157                 1.0034                 1.9132
 IR Inten    --    157.3897               172.3652                22.9631

                     31                     32                     33
                      A                      A                      A
 Frequencies --   1329.9837              1341.3047              1362.7601
 Red. masses --     10.6540                 1.5326                 2.9157
 Frc consts  --     11.1034                 1.6246                 3.1903
 IR Inten    --      6.5709               233.5130                92.6963

                     34                     35                     36
                      A                      A                      A
 Frequencies --   1394.4498              1508.8350              1568.0266
 Red. masses --      4.2090                 3.6874                 3.2850
 Frc consts  --      4.8221                 4.9460                 4.7588
 IR Inten    --     69.0913                29.5252               207.0361

                     37                     38                     39
                      A                      A                      A
 Frequencies --   1682.5692              1715.1298              1847.9578
 Red. masses --      6.9480                 6.8186                10.3192
 Frc consts  --     11.5893                11.8179                20.7625
 IR Inten    --     60.2501                 5.6766               418.0397

                     40                     41                     42
                      A                      A                      A
 Frequencies --   3192.7826              3208.4158              3266.9108
 Red. masses --      1.0883                 1.0960                 1.0920
 Frc consts  --      6.5361                 6.6470                 6.8665
 IR Inten    --     13.9571                 6.8607                 3.8264

                     43                     44                     45
                      A                      A                      A
 Frequencies --   3813.4997              3866.4315              3882.0441
 Red. masses --      1.0647                 1.0662                 1.0665
 Frc consts  --      9.1224                 9.3911                 9.4696
 IR Inten    --    114.4311                73.5385                76.8423

 - Thermochemistry -
 -------------------
 Temperature   298.150 Kelvin.  Pressure   1.00000 Atm.
 Atom     1 has atomic number  6 and mass  12.00000

 Molecular mass:   154.02661 amu.
 Principal axes and moments of inertia in atomic units:
                           1         2         3
     Eigenvalues --  1020.182281962.371612982.55388
           X            0.99972  -0.02358   0.00000
           Y            0.02358   0.99972   0.00000
           Z           -0.00000  -0.00000   1.00000
 This molecule is an asymmetric top.
 Rotational symmetry number  1.
 Warning -- assumption of classical behavior for rotation
           may cause significant error
 Rotational temperatures (Kelvin)      0.08490     0.04414     0.02904
 Rotational constants (GHZ):           1.76904     0.91967     0.60510
 Zero-point vibrational energy     327945.2 (Joules/Mol)
                                   78.38078 (Kcal/Mol)
 Warning -- explicit consideration of  15 degrees of freedom as
           vibrations may cause significant error
 Vibrational temperatures:     35.29   178.21   248.47   289.78   363.45
          (Kelvin)            470.75   497.19   544.40   575.62   585.73
                              637.84   703.66   795.66   800.61   865.63
                              966.23  1006.24  1068.43  1164.59  1170.78
                             1209.09  1340.56  1378.84  1398.77  1564.86
                             1680.25  1702.34  1723.92  1730.75  1857.51
                             1913.55  1929.84  1960.71  2006.30  2170.87
                             2256.04  2420.84  2467.69  2658.80  4593.70
                             4616.19  4700.35  5486.77  5562.93  5585.39

 Zero-point correction=                           0.124908 (Hartree/Particle)
 Thermal correction to Energy=                    0.134538
 Thermal correction to Enthalpy=                  0.135482
 Thermal correction to Gibbs Free Energy=         0.089246
 Sum of electronic and zero-point Energies=           -570.925161
 Sum of electronic and thermal Energies=              -570.915530
 Sum of electronic and thermal Enthalpies=            -570.914586
 Sum of electronic and thermal Free Energies=         -570.960822

                     E (Thermal)             CV                S
                      KCal/Mol        Cal/Mol-Kelvin    Cal/Mol-Kelvin
 Total                   84.424             36.551             97.311
 Electronic               0.000              0.000              0.000
 Translational            0.889              2.981             41.006
 Rotational               0.889              2.981             30.169
 Vibrational             82.646             30.590             26.137
 Vibration     1          0.593              1.985              6.229
 Vibration     2          0.610              1.929              3.039
 Vibration     3          0.626              1.876              2.406
 Vibration     4          0.638              1.838              2.120
 Vibration     5          0.664              1.758              1.712
 Vibration     6          0.711              1.621              1.274
 Vibration     7          0.724              1.584              1.186
 Vibration     8          0.749              1.516              1.046
 Vibration     9          0.766              1.470              0.962
 Vibration    10          0.772              1.455              0.937
 Vibration    11          0.803              1.376              0.816
 Vibration    12          0.845              1.274              0.686
 Vibration    13          0.908              1.133              0.538
 Vibration    14          0.912              1.126              0.531
 Vibration    15          0.960              1.028              0.447

 Optimization completed.
    -- Stationary point found.
 Normal termination of Gaussian 09 at Wed Jun 19 13:54:56 2024.
