 Gaussian 09, Revision E.01,
 Gaussian 09:  ES64L-G09RevE.01 30-Nov-2015

 ----------------------------
 # opt freq m062x/6-31+g(d,p)
 ----------------------------

 ----------
 [No Title]
 ----------
 Symbolic Z-matrix:
 Charge =  1 Multiplicity = 1

 SCF Done:  E(RM062X) =  -571.358083382     A.U. after   15 cycles
 SCF Done:  E(RM062X) =  -571.358161161     A.U. after   11 cycles
 SCF Done:  E(RM062X) =  -571.358164308     A.U. after   11 cycles
 SCF Done:  E(RM062X) =  -571.358161243     A.U. after   11 cycles
 SCF Done:  E(RM062X) =  -571.358165947     A.U. after   11 cycles
 Optimization completed.
    -- Stationary point found.
 Normal termination of Gaussian 09 at Tue Feb 27 13:07:17 2024.

 ----------------------------------------------------------------------
 #N Geom=AllCheck Guess=TCheck SCRF=Check GenChk RM062X/6-31+G(d,p) Fre
 q
 ----------------------------------------------------------------------

 Structure from the checkpoint file:  "lwm062DHBYang.chk"
 ----------
 [No Title]
 ----------
 Charge =  1 Multiplicity = 1

                         Standard orientation:
 ---------------------------------------------------------------------
 Center     Atomic      Atomic             Coordinates (Angstroms)
 Number     Number       Type             X           Y           Z
 ---------------------------------------------------------------------
      1          6           0        0.320429    1.284894   -0.000054
      2          6           0        0.503776   -0.117685   -0.000064
      3          6           0       -0.614253   -0.952244   -0.000014
      4          6           0       -1.858496   -0.363815    0.000030
      5          6           0       -2.094622    0.998523    0.000037
      6          6           0       -0.981412    1.821675   -0.000005
      7          8           0       -3.053569   -1.229559    0.000075
      8          6           0        1.872504   -0.732619   -0.000142
      9          8           0        1.792956   -2.079634    0.000225
     10          8           0        2.906672   -0.127816   -0.000115
     11          8           0        1.394878    2.066408   -0.000086
     12          1           0       -0.472674   -2.028824   -0.000016
     13          1           0       -3.101344    1.402498    0.000073
     14          1           0       -1.114704    2.899058    0.000002
     15          1           0       -3.192908   -1.757482   -0.810508
     16          1           0       -3.192847   -1.757483    0.810667
     17          1           0        2.698422   -2.429717    0.000328
     18          1           0        1.161007    3.004397   -0.000071
 ---------------------------------------------------------------------

 SCF Done:  E(RM062X) =  -571.358165947     A.U. after    1 cycles

 The electronic state is 1-A.
 Alpha  occ. eigenvalues --  -20.00980 -19.82829 -19.81648 -19.76326 -10.82155
 Alpha  occ. eigenvalues --  -10.81537 -10.79783 -10.75025 -10.74998 -10.73586
 Alpha  occ. eigenvalues --  -10.72921  -1.50267  -1.36484  -1.35018  -1.26868
 Alpha  occ. eigenvalues --   -1.15423  -1.04943  -1.03430  -0.95803  -0.92759
 Alpha  occ. eigenvalues --   -0.91556  -0.86868  -0.80986  -0.79534  -0.77214
 Alpha  occ. eigenvalues --   -0.71416  -0.71021  -0.69969  -0.67914  -0.67728
 Alpha  occ. eigenvalues --   -0.66429  -0.64264  -0.61972  -0.60443  -0.59645
 Alpha  occ. eigenvalues --   -0.58501  -0.52011  -0.48985  -0.47817  -0.45418
 Alpha virt. eigenvalues --   -0.19212  -0.17499  -0.14791  -0.10594  -0.10339
 Alpha virt. eigenvalues --   -0.10193  -0.08969  -0.07997  -0.06667  -0.05513
 Alpha virt. eigenvalues --   -0.05290  -0.04957  -0.03748  -0.03182  -0.02673

 Mulliken charges:
               1
     1  C   -0.833663
     2  C    0.681858
     3  C    0.013570
     4  C   -0.666539
     5  C    0.175866
     6  C    0.217773
     7  O   -0.492284
     8  C    0.784343
     9  O   -0.519992
    10  O   -0.373674
    11  O   -0.446686
    12  H    0.230275
    13  H    0.218356
    14  H    0.190816
    15  H    0.489500
    16  H    0.489500
    17  H    0.430816
    18  H    0.410163
 Sum of Mulliken charges =   1.00000

 Dipole moment (field-independent basis, Debye):
    X=            -11.4140    Y=             -3.3774    Z=              0.0003  Tot=             11.9032
 Quadrupole moment (field-independent basis, Debye-Ang):
   XX=            -27.6911   YY=            -29.1359   ZZ=            -60.2477
   XY=             10.1400   XZ=              0.0003   YZ=             -0.0008

  Exact polarizability: 115.477   2.535 102.448  -0.002  -0.002  48.349
 Approx polarizability: 143.582   9.892 131.560  -0.002  -0.002  63.559

                      1                      2                      3
                      A                      A                      A
 Frequencies --     35.1944               118.0200               166.3614
 Red. masses --     11.2038                 4.6018                 4.7313
 Frc consts  --      0.0082                 0.0378                 0.0771
 IR Inten    --      0.3290                 1.5396                15.9519

                      4                      5                      6
                      A                      A                      A
 Frequencies --    202.8824               232.3373               324.0978
 Red. masses --      6.2856                 1.0686                 5.6049
 Frc consts  --      0.1524                 0.0340                 0.3469
 IR Inten    --      3.3208                48.5316                20.8845

                      7                      8                      9
                      A                      A                      A
 Frequencies --    340.0454               388.2302               401.3508
 Red. masses --      4.2812                 5.0455                 9.3068
 Frc consts  --      0.2917                 0.4481                 0.8833
 IR Inten    --      0.0954                10.8056                 3.1166

                     10                     11                     12
                      A                      A                      A
 Frequencies --    430.2900               449.6900               468.3359
 Red. masses --      1.6400                 1.6715                 7.7458
 Frc consts  --      0.1789                 0.1991                 1.0010
 IR Inten    --     74.3539                34.0947                 1.4281

                     13                     14                     15
                      A                      A                      A
 Frequencies --    525.4056               547.1425               602.2969
 Red. masses --      3.0449                 3.8261                 1.2884
 Frc consts  --      0.4952                 0.6748                 0.2754
 IR Inten    --     22.0259                40.4995               107.0761

                     16                     17                     18
                      A                      A                      A
 Frequencies --    621.4382               664.9020               686.2069
 Red. masses --      1.3640                 5.0060                 3.4388
 Frc consts  --      0.3104                 1.3039                 0.9540
 IR Inten    --    240.3094                69.6898                41.5999

                     19                     20                     21
                      A                      A                      A
 Frequencies --    716.0187               795.8309               808.3489
 Red. masses --      4.9761                 3.5674                 5.0488
 Frc consts  --      1.5031                 1.3312                 1.9437
 IR Inten    --     28.3179                 5.6308                15.5994

                     22                     23                     24
                      A                      A                      A
 Frequencies --    836.1619               902.4427               922.5151
 Red. masses --      1.8019                 6.5384                 1.3764
 Frc consts  --      0.7423                 3.1373                 0.6901
 IR Inten    --     58.4953                 5.5567                 7.9855

                     25                     26                     27
                      A                      A                      A
 Frequencies --    971.9035              1064.6796              1088.0550
 Red. masses --      1.3292                 1.2380                 2.8263
 Frc consts  --      0.7398                 0.8268                 1.9714
 IR Inten    --      0.7219                 8.9249                80.0138

                     28                     29                     30
                      A                      A                      A
 Frequencies --   1146.8644              1165.9685              1183.7754
 Red. masses --      1.9699                 1.7664                 1.2940
 Frc consts  --      1.5266                 1.4149                 1.0684
 IR Inten    --     67.9004                41.0531                79.8178

                     31                     32                     33
                      A                      A                      A
 Frequencies --   1210.3924              1312.9976              1358.6584
 Red. masses --      1.6826                 1.3465                 3.2515
 Frc consts  --      1.4524                 1.3677                 3.5363
 IR Inten    --    188.2319                82.4633                93.0194

                     34                     35                     36
                      A                      A                      A
 Frequencies --   1380.9953              1407.9787              1487.5187
 Red. masses --      3.5855                 4.9637                 4.9530
 Frc consts  --      4.0289                 5.7976                 6.4572
 IR Inten    --     32.1316                79.1661                84.1839

                     37                     38                     39
                      A                      A                      A
 Frequencies --   1561.0350              1650.1779              1666.6297
 Red. masses --      3.4149                 1.3555                 4.8682
 Frc consts  --      4.9028                 2.1748                 7.9671
 IR Inten    --    139.8168                78.9797                65.9170

                     40                     41                     42
                      A                      A                      A
 Frequencies --   1705.7308              1910.6811              3216.5630
 Red. masses --      4.2842                11.3364                 1.0915
 Frc consts  --      7.3441                24.3838                 6.6534
 IR Inten    --     29.2675               373.1856                 0.4437

                     43                     44                     45
                      A                      A                      A
 Frequencies --   3226.1899              3233.6662              3657.1797
 Red. masses --      1.0941                 1.0978                 1.0410
 Frc consts  --      6.7096                 6.7635                 8.2031
 IR Inten    --     15.3174                 9.5121               310.5649

                     46                     47                     48
                      A                      A                      A
 Frequencies --   3756.2697              3807.5797              3866.9549
 Red. masses --      1.0918                 1.0652                 1.0669
 Frc consts  --      9.0759                 9.0990                 9.3996
 IR Inten    --    369.4678               197.0225               159.7127

 - Thermochemistry -
 -------------------
 Temperature   298.150 Kelvin.  Pressure   1.00000 Atm.
 Atom     1 has atomic number  6 and mass  12.00000

 Molecular mass:   155.03443 amu.
 Principal axes and moments of inertia in atomic units:
                           1         2         3
     Eigenvalues --  1034.817672016.845893042.20461
           X            0.99998   0.00569   0.00002
           Y           -0.00569   0.99998   0.00004
           Z           -0.00002  -0.00004   1.00000
 This molecule is an asymmetric top.
 Rotational symmetry number  1.
 Warning -- assumption of classical behavior for rotation
           may cause significant error
 Rotational temperatures (Kelvin)      0.08370     0.04295     0.02847
 Rotational constants (GHZ):           1.74402     0.89483     0.59323
 Zero-point vibrational energy     360219.5 (Joules/Mol)
                                   86.09452 (Kcal/Mol)
 Warning -- explicit consideration of  15 degrees of freedom as
           vibrations may cause significant error
 Vibrational temperatures:     50.64   169.80   239.36   291.90   334.28
          (Kelvin)            466.30   489.25   558.58   577.45   619.09
                              647.00   673.83   755.94   787.22   866.57
                              894.11   956.64   987.30  1030.19  1145.02
                             1163.03  1203.05  1298.41  1327.29  1398.35
                             1531.83  1565.47  1650.08  1677.57  1703.19
                             1741.48  1889.11  1954.80  1986.94  2025.76
                             2140.21  2245.98  2374.23  2397.91  2454.16
                             2749.04  4627.91  4641.76  4652.52  5261.86
                             5404.43  5478.25  5563.68

 Zero-point correction=                           0.137200 (Hartree/Particle)
 Thermal correction to Energy=                    0.147075
 Thermal correction to Enthalpy=                  0.148019
 Thermal correction to Gibbs Free Energy=         0.101655
 Sum of electronic and zero-point Energies=           -571.220966
 Sum of electronic and thermal Energies=              -571.211091
 Sum of electronic and thermal Enthalpies=            -571.210147
 Sum of electronic and thermal Free Energies=         -571.256511

                     E (Thermal)             CV                S
                      KCal/Mol        Cal/Mol-Kelvin    Cal/Mol-Kelvin
 Total                   92.291             38.073             97.582
 Electronic               0.000              0.000              0.000
 Translational            0.889              2.981             41.025
 Rotational               0.889              2.981             30.230
 Vibrational             90.513             32.111             26.327
 Vibration     1          0.594              1.982              5.513
 Vibration     2          0.608              1.934              3.133
 Vibration     3          0.624              1.884              2.476
 Vibration     4          0.639              1.836              2.107
 Vibration     5          0.653              1.791              1.861
 Vibration     6          0.709              1.627              1.289
 Vibration     7          0.720              1.595              1.212
 Vibration     8          0.756              1.495              1.007
 Vibration     9          0.767              1.467              0.958
 Vibration    10          0.791              1.404              0.858
 Vibration    11          0.809              1.362              0.797
 Vibration    12          0.826              1.320              0.742
 Vibration    13          0.880              1.194              0.598
 Vibration    14          0.902              1.146              0.550
 Vibration    15          0.961              1.027              0.446

 Optimization completed.
    -- Stationary point found.
 Normal termination of Gaussian 09 at Tue Feb 27 13:09:05 2024.
