 Gaussian 09, Revision E.01,
 Gaussian 09:  ES64L-G09RevE.01 30-Nov-2015

 ----------------------------
 # opt freq m062x/6-31+g(d,p)
 ----------------------------

 ----------
 [No Title]
 ----------
 Symbolic Z-matrix:
 Charge =  0 Multiplicity = 1

 SCF Done:  E(RM062X) =  -571.065922763     A.U. after   16 cycles
 SCF Done:  E(RM062X) =  -571.065985671     A.U. after   12 cycles
 SCF Done:  E(RM062X) =  -571.065989485     A.U. after   11 cycles
 SCF Done:  E(RM062X) =  -571.065986020     A.U. after   11 cycles
 SCF Done:  E(RM062X) =  -571.065991237     A.U. after   11 cycles
 Optimization completed.
    -- Stationary point found.
 Normal termination of Gaussian 09 at Mon Feb 26 14:19:57 2024.

 ----------------------------------------------------------------------
 #N Geom=AllCheck Guess=TCheck SCRF=Check GenChk RM062X/6-31+G(d,p) Fre
 q
 ----------------------------------------------------------------------

 Structure from the checkpoint file:  "lwm062xDHB.chk"
 ----------
 [No Title]
 ----------
 Charge =  0 Multiplicity = 1

                         Standard orientation:
 ---------------------------------------------------------------------
 Center     Atomic      Atomic             Coordinates (Angstroms)
 Number     Number       Type             X           Y           Z
 ---------------------------------------------------------------------
      1          6           0        0.234443    1.269412    0.000028
      2          6           0        0.461560   -0.119315    0.000048
      3          6           0       -0.628372   -0.995919    0.000042
      4          6           0       -1.932280   -0.518493   -0.000001
      5          6           0       -2.157285    0.856763   -0.000030
      6          6           0       -1.081307    1.736494   -0.000005
      7          8           0       -2.941296   -1.439782   -0.000042
      8          6           0        1.844217   -0.672785    0.000072
      9          8           0        1.848959   -2.028166    0.000086
     10          8           0        2.870206   -0.039458   -0.000235
     11          8           0        1.285497    2.124431    0.000056
     12          1           0       -0.459134   -2.065866    0.000069
     13          1           0       -3.171809    1.247833   -0.000075
     14          1           0       -1.264786    2.807972   -0.000019
     15          1           0       -3.797356   -0.998281    0.000176
     16          1           0        2.779534   -2.296880   -0.000067
     17          1           0        0.960784    3.032078    0.000068
 ---------------------------------------------------------------------

 SCF Done:  E(RM062X) =  -571.065991237     A.U. after    1 cycles

 The electronic state is 1-A.
 Alpha  occ. eigenvalues --  -19.69084 -19.68510 -19.68427 -19.63651 -10.69203
 Alpha  occ. eigenvalues --  -10.63492 -10.62553 -10.58061 -10.58006 -10.57547
 Alpha  occ. eigenvalues --  -10.56901  -1.23751  -1.19974  -1.19588  -1.13858
 Alpha  occ. eigenvalues --   -0.97685  -0.88395  -0.85015  -0.76587  -0.73124
 Alpha  occ. eigenvalues --   -0.69615  -0.64217  -0.63104  -0.58704  -0.57154
 Alpha  occ. eigenvalues --   -0.56269  -0.54066  -0.52727  -0.50648  -0.50061
 Alpha  occ. eigenvalues --   -0.49630  -0.48620  -0.47102  -0.44793  -0.42912
 Alpha  occ. eigenvalues --   -0.39745  -0.39369  -0.35028  -0.32999  -0.27406
 Alpha virt. eigenvalues --   -0.02514   0.00181   0.00851   0.02113   0.02637
 Alpha virt. eigenvalues --    0.03162   0.05170   0.05507   0.05906   0.06996
 Alpha virt. eigenvalues --    0.07923   0.08127   0.08665   0.10086   0.10161

 Mulliken charges:
               1
     1  C   -0.834013
     2  C    0.600526
     3  C   -0.173723
     4  C   -0.223507
     5  C    0.080731
     6  C    0.091183
     7  O   -0.539085
     8  C    0.782787
     9  O   -0.508455
    10  O   -0.435907
    11  O   -0.485218
    12  H    0.200853
    13  H    0.145017
    14  H    0.140423
    15  H    0.371696
    16  H    0.404984
    17  H    0.381707
 Sum of Mulliken charges =  -0.00000

 Dipole moment (field-independent basis, Debye):
    X=             -3.6354    Y=              1.7575    Z=              0.0006  Tot=              4.0380
 Quadrupole moment (field-independent basis, Debye-Ang):
   XX=            -57.7770   YY=            -53.0117   ZZ=            -65.7458
   XY=            -10.4539   XZ=             -0.0006   YZ=              0.0002

  Exact polarizability: 123.182   0.099 107.245  -0.001  -0.001  50.205
 Approx polarizability: 149.216   6.086 138.589  -0.002  -0.002  64.958

                      1                      2                      3
                      A                      A                      A
 Frequencies --     31.4659               123.6664               172.8412
 Red. masses --     11.5247                 5.3789                 5.4188
 Frc consts  --      0.0067                 0.0485                 0.0954
 IR Inten    --      2.2230                 2.5701                 4.1759

                      4                      5                      6
                      A                      A                      A
 Frequencies --    207.4990               314.2855               332.8938
 Red. masses --      7.6501                 1.0908                 6.8761
 Frc consts  --      0.1941                 0.0635                 0.4490
 IR Inten    --      2.8996               103.8566                 0.7112

                      7                      8                      9
                      A                      A                      A
 Frequencies --    337.2376               378.1961               399.8616
 Red. masses --      1.1237                 6.1456                 9.5137
 Frc consts  --      0.0753                 0.5179                 0.8962
 IR Inten    --    120.7701                 1.1773                 3.4869

                     10                     11                     12
                      A                      A                      A
 Frequencies --    406.7870               436.4724               486.5058
 Red. masses --      6.2279                 3.0331                 7.9823
 Frc consts  --      0.6072                 0.3404                 1.1131
 IR Inten    --      1.3390                 3.6757                 1.1672

                     13                     14                     15
                      A                      A                      A
 Frequencies --    550.9316               551.7860               594.2814
 Red. masses --      4.0439                 2.0933                 1.4652
 Frc consts  --      0.7232                 0.3755                 0.3049
 IR Inten    --     36.1270                 0.1431               124.9418

                     16                     17                     18
                      A                      A                      A
 Frequencies --    673.7945               686.2998               744.1396
 Red. masses --      5.1712                 4.3596                 5.2347
 Frc consts  --      1.3832                 1.2098                 1.7078
 IR Inten    --     42.9696                17.3731                31.2714

                     19                     20                     21
                      A                      A                      A
 Frequencies --    804.5922               813.5345               832.1332
 Red. masses --      3.5391                 5.7665                 2.0077
 Frc consts  --      1.3499                 2.2486                 0.8191
 IR Inten    --      2.9760                48.3574                64.9465

                     22                     23                     24
                      A                      A                      A
 Frequencies --    921.0259               950.7800               975.3223
 Red. masses --      1.3854                 1.3624                 4.9278
 Frc consts  --      0.6924                 0.7256                 2.7619
 IR Inten    --      7.6384                 5.1829                11.7431

                     25                     26                     27
                      A                      A                      A
 Frequencies --   1088.5047              1168.4768              1185.0273
 Red. masses --      3.0857                 1.5047                 1.3969
 Frc consts  --      2.1541                 1.2104                 1.1558
 IR Inten    --     69.2729                30.7790               110.5159

                     28                     29                     30
                      A                      A                      A
 Frequencies --   1204.1256              1213.7662              1292.5502
 Red. masses --      1.3723                 1.3214                 1.8926
 Frc consts  --      1.1723                 1.1470                 1.8630
 IR Inten    --    334.3811               103.8221                15.8441

                     31                     32                     33
                      A                      A                      A
 Frequencies --   1336.1931              1343.6229              1369.4259
 Red. masses --      1.5127                 9.6737                 3.0272
 Frc consts  --      1.5913                10.2896                 3.3448
 IR Inten    --    252.0716                 9.8531                88.9126

                     34                     35                     36
                      A                      A                      A
 Frequencies --   1404.1021              1511.7979              1569.4319
 Red. masses --      4.2358                 3.7491                 3.5410
 Frc consts  --      4.9201                 5.0485                 5.1388
 IR Inten    --     76.3103                30.7546               227.7087

                     37                     38                     39
                      A                      A                      A
 Frequencies --   1689.0518              1720.1128              1875.3618
 Red. masses --      7.1204                 7.0372                10.5874
 Frc consts  --     11.9686                12.2676                21.9386
 IR Inten    --     55.6067                 5.3919               422.0988

                     40                     41                     42
                      A                      A                      A
 Frequencies --   3183.6319              3198.7514              3249.5203
 Red. masses --      1.0881                 1.0964                 1.0920
 Frc consts  --      6.4979                 6.6094                 6.7938
 IR Inten    --     12.6975                 5.5186                 4.6542

                     43                     44                     45
                      A                      A                      A
 Frequencies --   3853.0853              3890.4456              3903.4958
 Red. masses --      1.0649                 1.0663                 1.0666
 Frc consts  --      9.3149                 9.5092                 9.5751
 IR Inten    --    128.5989                79.4747                83.2764

 - Thermochemistry -
 -------------------
 Temperature   298.150 Kelvin.  Pressure   1.00000 Atm.
 Atom     1 has atomic number  6 and mass  12.00000

 Molecular mass:   154.02661 amu.
 Principal axes and moments of inertia in atomic units:
                           1         2         3
     Eigenvalues --  1019.408981963.762142983.17111
           X            0.99972  -0.02357   0.00001
           Y            0.02357   0.99972   0.00000
           Z           -0.00001  -0.00000   1.00000
 This molecule is an asymmetric top.
 Rotational symmetry number  1.
 Warning -- assumption of classical behavior for rotation
           may cause significant error
 Rotational temperatures (Kelvin)      0.08496     0.04411     0.02903
 Rotational constants (GHZ):           1.77038     0.91902     0.60497
 Zero-point vibrational energy     328834.4 (Joules/Mol)
                                   78.59330 (Kcal/Mol)
 Warning -- explicit consideration of  15 degrees of freedom as
           vibrations may cause significant error
 Vibrational temperatures:     45.27   177.93   248.68   298.54   452.19
          (Kelvin)            478.96   485.21   544.14   575.31   585.28
                              627.99   699.97   792.67   793.90   855.04
                              969.44   987.43  1070.65  1157.63  1170.49
                             1197.25  1325.15  1367.96  1403.27  1566.11
                             1681.18  1704.99  1732.47  1746.34  1859.69
                             1922.48  1933.17  1970.30  2020.19  2175.14
                             2258.06  2430.17  2474.86  2698.22  4580.53
                             4602.28  4675.33  5543.72  5597.48  5616.25

 Zero-point correction=                           0.125246 (Hartree/Particle)
 Thermal correction to Energy=                    0.134799
 Thermal correction to Enthalpy=                  0.135744
 Thermal correction to Gibbs Free Energy=         0.089902
 Sum of electronic and zero-point Energies=           -570.940745
 Sum of electronic and thermal Energies=              -570.931192
 Sum of electronic and thermal Enthalpies=            -570.930248
 Sum of electronic and thermal Free Energies=         -570.976089

                     E (Thermal)             CV                S
                      KCal/Mol        Cal/Mol-Kelvin    Cal/Mol-Kelvin
 Total                   84.588             36.517             96.482
 Electronic               0.000              0.000              0.000
 Translational            0.889              2.981             41.006
 Rotational               0.889              2.981             30.169
 Vibrational             82.810             30.555             25.307
 Vibration     1          0.594              1.983              5.735
 Vibration     2          0.610              1.929              3.042
 Vibration     3          0.626              1.876              2.404
 Vibration     4          0.641              1.829              2.066
 Vibration     5          0.702              1.646              1.340
 Vibration     6          0.715              1.610              1.246
 Vibration     7          0.718              1.601              1.225
 Vibration     8          0.748              1.517              1.046
 Vibration     9          0.766              1.470              0.963
 Vibration    10          0.772              1.455              0.938
 Vibration    11          0.797              1.391              0.838
 Vibration    12          0.843              1.280              0.693
 Vibration    13          0.906              1.138              0.542
 Vibration    14          0.907              1.136              0.540
 Vibration    15          0.952              1.044              0.460

 Optimization completed.
    -- Stationary point found.
 Normal termination of Gaussian 09 at Mon Feb 26 14:21:52 2024.
