 Gaussian 09, Revision E.01,
 Gaussian 09:  ES64L-G09RevE.01 30-Nov-2015

 -----------------------------
 # opt freq pbepbe/6-31+g(d,p)
 -----------------------------

 ----------
 [No Title]
 ----------
 Symbolic Z-matrix:
 Charge =  0 Multiplicity = 1

 SCF Done:  E(RPBE-PBE) =  -570.658707350     A.U. after   15 cycles
 SCF Done:  E(RPBE-PBE) =  -570.661268224     A.U. after   13 cycles
 SCF Done:  E(RPBE-PBE) =  -570.661325498     A.U. after   11 cycles
 SCF Done:  E(RPBE-PBE) =  -570.661323818     A.U. after   11 cycles
 SCF Done:  E(RPBE-PBE) =  -570.661332513     A.U. after   10 cycles
 Optimization completed.
    -- Stationary point found.
 Normal termination of Gaussian 09 at Mon May 20 13:01:55 2024.

 ----------------------------------------------------------------------
 #N Geom=AllCheck Guess=TCheck SCRF=Check GenChk RPBEPBE/6-31+G(d,p) Fr
 eq
 ----------------------------------------------------------------------

 Structure from the checkpoint file:  "lwpbeDHB.chk"
 ----------
 [No Title]
 ----------
 Charge =  0 Multiplicity = 1

                         Standard orientation:
 ---------------------------------------------------------------------
 Center     Atomic      Atomic             Coordinates (Angstroms)
 Number     Number       Type             X           Y           Z
 ---------------------------------------------------------------------
      1          6           0        0.237046    1.279517    0.000102
      2          6           0        0.471457   -0.123695    0.000346
      3          6           0       -0.632957   -1.002704    0.000277
      4          6           0       -1.946625   -0.523326    0.000008
      5          6           0       -2.174141    0.864261   -0.000212
      6          6           0       -1.090277    1.748102   -0.000155
      7          8           0       -2.963556   -1.453535   -0.000056
      8          6           0        1.852232   -0.675864    0.000661
      9          8           0        1.859555   -2.053593   -0.000293
     10          8           0        2.897211   -0.035663   -0.000407
     11          8           0        1.294326    2.145474    0.000148
     12          1           0       -0.459768   -2.080083    0.000456
     13          1           0       -3.195985    1.260796   -0.000437
     14          1           0       -1.276270    2.828396   -0.000327
     15          1           0       -3.820934   -0.989815   -0.000044
     16          1           0        2.810098   -2.294459   -0.000939
     17          1           0        0.942166    3.055954   -0.000007
 ---------------------------------------------------------------------

 SCF Done:  E(RPBE-PBE) =  -570.661332513     A.U. after    2 cycles

 The electronic state is 1-A.
 Alpha  occ. eigenvalues --  -18.82548 -18.82534 -18.82486 -18.76799 -10.02971
 Alpha  occ. eigenvalues --   -9.98515  -9.97734  -9.93578  -9.93385  -9.93027
 Alpha  occ. eigenvalues --   -9.92191  -1.01064  -0.98924  -0.98544  -0.92306
 Alpha  occ. eigenvalues --   -0.79202  -0.71246  -0.68328  -0.61229  -0.58383
 Alpha  occ. eigenvalues --   -0.55441  -0.50707  -0.50022  -0.45366  -0.43887
 Alpha  occ. eigenvalues --   -0.42193  -0.40377  -0.40301  -0.38707  -0.37511
 Alpha  occ. eigenvalues --   -0.36929  -0.35488  -0.34598  -0.32926  -0.32015
 Alpha  occ. eigenvalues --   -0.28158  -0.27598  -0.24821  -0.22720  -0.19562
 Alpha virt. eigenvalues --   -0.08795  -0.03801  -0.02901  -0.02470  -0.00684
 Alpha virt. eigenvalues --    0.00362   0.00642   0.02948   0.03797   0.04120
 Alpha virt. eigenvalues --    0.04972   0.06675   0.07027   0.07266   0.07757

 Mulliken charges:
               1
     1  C   -1.146027
     2  C    0.691260
     3  C   -0.171247
     4  C   -0.304583
     5  C    0.188906
     6  C    0.183798
     7  O   -0.483879
     8  C    0.777430
     9  O   -0.427559
    10  O   -0.414302
    11  O   -0.422841
    12  H    0.179824
    13  H    0.130265
    14  H    0.127615
    15  H    0.353198
    16  H    0.377219
    17  H    0.360922
 Sum of Mulliken charges =  -0.00000

 Dipole moment (field-independent basis, Debye):
    X=             -3.7473    Y=              1.8502    Z=              0.0001  Tot=              4.1792
 Quadrupole moment (field-independent basis, Debye-Ang):
   XX=            -58.2402   YY=            -53.4670   ZZ=            -65.8988
   XY=             -9.5051   XZ=              0.0005   YZ=              0.0002

  Exact polarizability: 138.732  -1.353 118.596   0.001  -0.004  53.509
 Approx polarizability: 271.945  10.701 248.835  -0.001  -0.018  86.616

                      1                      2                      3
                      A                      A                      A
 Frequencies --     30.6589               114.0744               163.2505
 Red. masses --     11.6989                 5.4724                 5.3319
 Frc consts  --      0.0065                 0.0420                 0.0837
 IR Inten    --      1.9941                 2.3953                 4.5954

                      4                      5                      6
                      A                      A                      A
 Frequencies --    191.8975               298.3535               314.2281
 Red. masses --      7.7243                 1.1036                 6.8869
 Frc consts  --      0.1676                 0.0579                 0.4006
 IR Inten    --      2.8979               102.2588                 0.9476

                      7                      8                      9
                      A                      A                      A
 Frequencies --    351.5167               382.8656               384.6235
 Red. masses --      4.1325                 1.2182                 7.0732
 Frc consts  --      0.3009                 0.1052                 0.6165
 IR Inten    --      9.7372                81.9283                 2.9407

                     10                     11                     12
                      A                      A                      A
 Frequencies --    390.8535               418.7584               467.7103
 Red. masses --      7.8797                 3.1238                 8.0178
 Frc consts  --      0.7092                 0.3227                 1.0334
 IR Inten    --      1.2072                 1.9683                 0.7200

                     13                     14                     15
                      A                      A                      A
 Frequencies --    526.9246               528.0223               582.4538
 Red. masses --      2.4652                 4.0207                 1.3706
 Frc consts  --      0.4033                 0.6605                 0.2740
 IR Inten    --      5.3967                37.0339                98.9351

                     16                     17                     18
                      A                      A                      A
 Frequencies --    638.7244               654.0267               708.6752
 Red. masses --      4.8682                 3.8624                 5.6494
 Frc consts  --      1.1702                 0.9734                 1.6717
 IR Inten    --     41.4889                25.8460                15.7719

                     19                     20                     21
                      A                      A                      A
 Frequencies --    758.1303               779.8752               782.4436
 Red. masses --      2.3768                 5.8752                 2.7784
 Frc consts  --      0.8049                 2.1053                 1.0022
 IR Inten    --      0.7184                49.3834                53.0513

                     22                     23                     24
                      A                      A                      A
 Frequencies --    858.6234               885.4433               929.1407
 Red. masses --      1.3574                 1.3759                 5.3807
 Frc consts  --      0.5896                 0.6356                 2.7369
 IR Inten    --      5.6949                 5.1270                14.0150

                     25                     26                     27
                      A                      A                      A
 Frequencies --   1026.8707              1115.6443              1139.3413
 Red. masses --      3.7719                 1.7698                 1.4504
 Frc consts  --      2.3434                 1.2978                 1.1093
 IR Inten    --    129.3043                66.2239               278.6111

                     28                     29                     30
                      A                      A                      A
 Frequencies --   1160.3698              1166.4492              1241.0983
 Red. masses --      1.1877                 1.2685                 1.9612
 Frc consts  --      0.9422                 1.0169                 1.7799
 IR Inten    --     32.1646               132.1741                29.6475

                     31                     32                     33
                      A                      A                      A
 Frequencies --   1279.6741              1286.0373              1318.8568
 Red. masses --      5.9726                 1.5170                 2.9673
 Frc consts  --      5.7626                 1.4783                 3.0410
 IR Inten    --     17.0852               209.4400               127.9097

                     34                     35                     36
                      A                      A                      A
 Frequencies --   1385.2267              1444.8705              1494.3980
 Red. masses --      6.3007                 3.4030                 3.2053
 Frc consts  --      7.1233                 4.1857                 4.2174
 IR Inten    --      7.3188                27.5741               175.8641

                     37                     38                     39
                      A                      A                      A
 Frequencies --   1593.1792              1628.7077              1738.7082
 Red. masses --      6.5642                 6.7596                 9.7567
 Frc consts  --      9.8166                10.5648                17.3782
 IR Inten    --     68.8560                 4.3262               343.1382

                     40                     41                     42
                      A                      A                      A
 Frequencies --   3097.6607              3113.7163              3172.2745
 Red. masses --      1.0866                 1.0949                 1.0906
 Frc consts  --      6.1432                 6.2542                 6.4665
 IR Inten    --     17.4808                10.1399                 3.0792

                     43                     44                     45
                      A                      A                      A
 Frequencies --   3649.1535              3692.1411              3718.8998
 Red. masses --      1.0642                 1.0658                 1.0662
 Frc consts  --      8.3494                 8.5601                 8.6876
 IR Inten    --     72.2676                43.7463                52.9824

 - Thermochemistry -
 -------------------
 Temperature   298.150 Kelvin.  Pressure   1.00000 Atm.
 Atom     1 has atomic number  6 and mass  12.00000

 Molecular mass:   154.02661 amu.
 Principal axes and moments of inertia in atomic units:
                           1         2         3
     Eigenvalues --  1038.265791993.842273032.10796
           X            0.99971  -0.02415   0.00000
           Y            0.02415   0.99971  -0.00001
           Z           -0.00000   0.00001   1.00000
 This molecule is an asymmetric top.
 Rotational symmetry number  1.
 Warning -- assumption of classical behavior for rotation
           may cause significant error
 Rotational temperatures (Kelvin)      0.08342     0.04344     0.02857
 Rotational constants (GHZ):           1.73823     0.90516     0.59521
 Zero-point vibrational energy     314645.1 (Joules/Mol)
                                   75.20198 (Kcal/Mol)
 Warning -- explicit consideration of  15 degrees of freedom as
           vibrations may cause significant error
 Vibrational temperatures:     44.11   164.13   234.88   276.10   429.26
          (Kelvin)            452.10   505.75   550.86   553.39   562.35
                              602.50   672.93   758.13   759.71   838.02
                              918.98   941.00  1019.62  1090.78  1122.07
                             1125.76  1235.37  1273.95  1336.82  1477.44
                             1605.16  1639.26  1669.51  1678.26  1785.66
                             1841.16  1850.32  1897.54  1993.03  2078.84
                             2150.10  2292.23  2343.34  2501.61  4456.84
                             4479.94  4564.19  5250.31  5312.16  5350.66

 Zero-point correction=                           0.119842 (Hartree/Particle)
 Thermal correction to Energy=                    0.129728
 Thermal correction to Enthalpy=                  0.130673
 Thermal correction to Gibbs Free Energy=         0.084176
 Sum of electronic and zero-point Energies=           -570.541491
 Sum of electronic and thermal Energies=              -570.531604
 Sum of electronic and thermal Enthalpies=            -570.530660
 Sum of electronic and thermal Free Energies=         -570.577157

                     E (Thermal)             CV                S
                      KCal/Mol        Cal/Mol-Kelvin    Cal/Mol-Kelvin
 Total                   81.406             37.894             97.860
 Electronic               0.000              0.000              0.000
 Translational            0.889              2.981             41.006
 Rotational               0.889              2.981             30.219
 Vibrational             79.628             31.932             26.636
 Vibration     1          0.594              1.984              5.786
 Vibration     2          0.607              1.938              3.198
 Vibration     3          0.623              1.888              2.512
 Vibration     4          0.634              1.851              2.209
 Vibration     5          0.691              1.677              1.426
 Vibration     6          0.702              1.647              1.340
 Vibration     7          0.728              1.572              1.159
 Vibration     8          0.752              1.507              1.028
 Vibration     9          0.754              1.503              1.021
 Vibration    10          0.759              1.490              0.997
 Vibration    11          0.782              1.429              0.896
 Vibration    12          0.825              1.322              0.744
 Vibration    13          0.882              1.190              0.594
 Vibration    14          0.883              1.188              0.592
 Vibration    15          0.939              1.069              0.481

 Normal termination of Gaussian 09 at Mon May 20 13:03:16 2024.
