 Gaussian 09, Revision E.01,
 Gaussian 09:  ES64L-G09RevE.01 30-Nov-2015

 -----------------------------
 # opt freq pbepbe/6-31+g(d,p)
 -----------------------------

 ----------
 [No Title]
 ----------
 Symbolic Z-matrix:
 Charge =  1 Multiplicity = 1

 SCF Done:  E(RPBE-PBE) =  -570.991349760     A.U. after   18 cycles
 SCF Done:  E(RPBE-PBE) =  -570.993916436     A.U. after   13 cycles
 SCF Done:  E(RPBE-PBE) =  -570.993995143     A.U. after   11 cycles
 SCF Done:  E(RPBE-PBE) =  -570.994009429     A.U. after   11 cycles
 SCF Done:  E(RPBE-PBE) =  -570.994011787     A.U. after    9 cycles
 Optimization completed.
    -- Stationary point found.
 Normal termination of Gaussian 09 at Mon May 20 13:36:37 2024.

 ----------------------------------------------------------------------
 #N Geom=AllCheck Guess=TCheck SCRF=Check GenChk RPBEPBE/6-31+G(d,p) Fr
 eq
 ----------------------------------------------------------------------

 Structure from the checkpoint file:  "2pbeDHB21.chk"
 ----------
 [No Title]
 ----------
 Charge =  1 Multiplicity = 1

                         Standard orientation:
 ---------------------------------------------------------------------
 Center     Atomic      Atomic             Coordinates (Angstroms)
 Number     Number       Type             X           Y           Z
 ---------------------------------------------------------------------
      1          6           0        0.217227    1.282438   -0.000010
      2          6           0        0.428299   -0.140902   -0.000009
      3          6           0       -0.695164   -1.021805    0.000012
      4          6           0       -1.992543   -0.519910    0.000025
      5          6           0       -2.187769    0.886820    0.000020
      6          6           0       -1.105611    1.763196    0.000007
      7          8           0       -3.012440   -1.416254    0.000021
      8          6           0        1.732416   -0.720557   -0.000016
      9          8           0        1.817783   -2.042001    0.000085
     10          8           0        2.804313    0.045145   -0.000118
     11          8           0        1.284653    2.107177   -0.000023
     12          1           0       -0.545961   -2.102631    0.000013
     13          1           0       -3.203755    1.296754    0.000025
     14          1           0       -1.283884    2.843376    0.000007
     15          1           0       -3.878495   -0.966103    0.000112
     16          1           0        2.730710   -2.398108   -0.000018
     17          1           0        3.656053   -0.441592   -0.000032
     18          1           0        0.989736    3.040086   -0.000013
 ---------------------------------------------------------------------

 SCF Done:  E(RPBE-PBE) =  -570.994011787     A.U. after    1 cycles

 The electronic state is 1-A.
 Alpha  occ. eigenvalues --  -19.04417 -19.04390 -18.98537 -18.95512 -10.25412
 Alpha  occ. eigenvalues --  -10.15042 -10.12313 -10.10445 -10.08389 -10.07598
 Alpha  occ. eigenvalues --  -10.07343  -1.25006  -1.17728  -1.15154  -1.12103
 Alpha  occ. eigenvalues --   -0.95079  -0.89103  -0.83643  -0.80993  -0.77291
 Alpha  occ. eigenvalues --   -0.73282  -0.72336  -0.67352  -0.65717  -0.61841
 Alpha  occ. eigenvalues --   -0.61466  -0.60662  -0.57726  -0.54684  -0.53676
 Alpha  occ. eigenvalues --   -0.53588  -0.52461  -0.51435  -0.50896  -0.50090
 Alpha  occ. eigenvalues --   -0.47154  -0.45591  -0.43178  -0.40634  -0.34313
 Alpha virt. eigenvalues --   -0.28024  -0.20199  -0.18907  -0.16242  -0.14621
 Alpha virt. eigenvalues --   -0.13917  -0.12914  -0.11322  -0.10568  -0.08792
 Alpha virt. eigenvalues --   -0.07903  -0.06638  -0.05819  -0.05590  -0.05257

 Mulliken charges:
               1
     1  C   -0.868664
     2  C    0.426324
     3  C   -0.122082
     4  C   -0.350757
     5  C    0.244411
     6  C    0.204908
     7  O   -0.450873
     8  C    0.904276
     9  O   -0.349092
    10  O   -0.348017
    11  O   -0.431623
    12  H    0.196280
    13  H    0.173330
    14  H    0.169742
    15  H    0.376610
    16  H    0.397806
    17  H    0.415210
    18  H    0.412211
 Sum of Mulliken charges =   1.00000

 Dipole moment (field-independent basis, Debye):
    X=              3.6633    Y=              0.4238    Z=              0.0001  Tot=              3.6877
 Quadrupole moment (field-independent basis, Debye-Ang):
   XX=            -13.5981   YY=            -40.1324   ZZ=            -63.8737
   XY=            -16.1733   XZ=             -0.0009   YZ=              0.0003

  Exact polarizability: 146.644  -9.083 119.036  -0.001  -0.001  48.096
 Approx polarizability: 318.662 -39.370 294.617  -0.003  -0.002  78.204

 ******    1 imaginary frequencies (negative Signs) ******

                      1                      2                      3
                      A                      A                      A
 Frequencies --    -11.7114               103.6085               151.2882
 Red. masses --     11.7713                 5.0507                 4.6582
 Frc consts  --      0.0010                 0.0319                 0.0628
 IR Inten    --      0.1936                12.5212                 9.0948

                      4                      5                      6
                      A                      A                      A
 Frequencies --    204.7876               269.0346               329.7318
 Red. masses --      6.3133                 1.0815                 6.2784
 Frc consts  --      0.1560                 0.0461                 0.4022
 IR Inten    --      8.8474                 8.6002                 0.1102

                      7                      8                      9
                      A                      A                      A
 Frequencies --    337.6373               350.3267               381.5634
 Red. masses --      2.1859                 1.5744                 7.5199
 Frc consts  --      0.1468                 0.1138                 0.6451
 IR Inten    --     65.0935                64.5211                 0.4885

                     10                     11                     12
                      A                      A                      A
 Frequencies --    397.1028               415.8959               451.5773
 Red. masses --      5.9140                 2.1924                 1.1525
 Frc consts  --      0.5495                 0.2234                 0.1385
 IR Inten    --      0.9101                52.4711                45.3156

                     13                     14                     15
                      A                      A                      A
 Frequencies --    462.2877               480.1465               529.2200
 Red. masses --      7.8006                 1.3834                 2.5909
 Frc consts  --      0.9822                 0.1879                 0.4275
 IR Inten    --      2.1419               178.4284                82.2556

                     16                     17                     18
                      A                      A                      A
 Frequencies --    543.7497               631.9319               652.5542
 Red. masses --      4.0552                 4.2270                 5.2643
 Frc consts  --      0.7064                 0.9945                 1.3208
 IR Inten    --     20.7463                43.0057                 0.5419

                     19                     20                     21
                      A                      A                      A
 Frequencies --    710.2406               744.4644               788.0195
 Red. masses --      5.4837                 4.8685                 5.8486
 Frc consts  --      1.6298                 1.5898                 2.1398
 IR Inten    --      9.6921                 0.9705                38.8651

                     22                     23                     24
                      A                      A                      A
 Frequencies --    806.3786               847.0109               923.2274
 Red. masses --      1.6822                 1.5236                 1.3314
 Frc consts  --      0.6445                 0.6440                 0.6686
 IR Inten    --     42.7890                14.8618                 0.5326

                     25                     26                     27
                      A                      A                      A
 Frequencies --    938.7879              1058.4658              1090.3487
 Red. masses --      4.5421                 3.1528                 1.1241
 Frc consts  --      2.3585                 2.0811                 0.7874
 IR Inten    --     23.8909               153.2389               165.4174

                     28                     29                     30
                      A                      A                      A
 Frequencies --   1117.8108              1156.6938              1165.8758
 Red. masses --      1.7223                 1.3377                 1.1607
 Frc consts  --      1.2679                 1.0545                 0.9295
 IR Inten    --    115.1285               219.6516                 7.9915

                     31                     32                     33
                      A                      A                      A
 Frequencies --   1172.8270              1259.2938              1297.6907
 Red. masses --      1.3171                 1.7761                 1.8343
 Frc consts  --      1.0675                 1.6595                 1.8200
 IR Inten    --    203.8772                 6.7881               229.3395

                     34                     35                     36
                      A                      A                      A
 Frequencies --   1309.2483              1408.2968              1413.8120
 Red. masses --      7.0883                 6.7125                 2.9897
 Frc consts  --      7.1588                 7.8438                 3.5210
 IR Inten    --     54.0532                72.7189                10.1335

                     37                     38                     39
                      A                      A                      A
 Frequencies --   1461.1365              1508.7840              1563.6209
 Red. masses --      5.3255                 4.1016                 5.1388
 Frc consts  --      6.6988                 5.5012                 7.4025
 IR Inten    --     54.9660               473.6957                99.4815

                     40                     41                     42
                      A                      A                      A
 Frequencies --   1576.1641              1640.0020              3120.1064
 Red. masses --      5.0566                 6.4007                 1.0886
 Frc consts  --      7.4014                10.1430                 6.2440
 IR Inten    --    502.1254                44.5086                 2.9726

                     43                     44                     45
                      A                      A                      A
 Frequencies --   3132.9254              3176.4976              3643.9279
 Red. masses --      1.0957                 1.0915                 1.0677
 Frc consts  --      6.3361                 6.4888                 8.3529
 IR Inten    --      0.5358                 7.4138               140.1755

                     46                     47                     48
                      A                      A                      A
 Frequencies --   3663.4182              3674.9842              3709.7612
 Red. masses --      1.0666                 1.0664                 1.0668
 Frc consts  --      8.4341                 8.4858                 8.6501
 IR Inten    --    376.2463               130.5379               122.1351

 - Thermochemistry -
 -------------------
 Temperature   298.150 Kelvin.  Pressure   1.00000 Atm.
 Atom     1 has atomic number  6 and mass  12.00000

 Molecular mass:   155.03443 amu.
 Principal axes and moments of inertia in atomic units:
                           1         2         3
     Eigenvalues --  1031.518802014.700913046.21971
           X            0.99958  -0.02906   0.00001
           Y            0.02906   0.99958   0.00001
           Z           -0.00001  -0.00001   1.00000
 This molecule is an asymmetric top.
 Rotational symmetry number  1.
 Warning -- assumption of classical behavior for rotation
           may cause significant error
 Rotational temperatures (Kelvin)      0.08397     0.04299     0.02843
 Rotational constants (GHZ):           1.74960     0.89579     0.59245
    1 imaginary frequencies ignored.
 Zero-point vibrational energy     345554.9 (Joules/Mol)
                                   82.58960 (Kcal/Mol)
 Warning -- explicit consideration of  15 degrees of freedom as
           vibrations may cause significant error
 Vibrational temperatures:    149.07   217.67   294.64   387.08   474.41
          (Kelvin)            485.78   504.04   548.98   571.34   598.38
                              649.72   665.13   690.82   761.43   782.33
                              909.21   938.88  1021.88  1071.12  1133.78
                             1160.20  1218.66  1328.32  1350.70  1522.89
                             1568.77  1608.28  1664.22  1677.43  1687.43
                             1811.84  1867.09  1883.71  2026.22  2034.16
                             2102.25  2170.80  2249.70  2267.75  2359.59
                             4489.13  4507.58  4570.27  5242.79  5270.84
                             5287.48  5337.51

 Zero-point correction=                           0.131615 (Hartree/Particle)
 Thermal correction to Energy=                    0.141045
 Thermal correction to Enthalpy=                  0.141989
 Thermal correction to Gibbs Free Energy=         0.097507
 Sum of electronic and zero-point Energies=           -570.862397
 Sum of electronic and thermal Energies=              -570.852967
 Sum of electronic and thermal Enthalpies=            -570.852023
 Sum of electronic and thermal Free Energies=         -570.896505

                     E (Thermal)             CV                S
                      KCal/Mol        Cal/Mol-Kelvin    Cal/Mol-Kelvin
 Total                   88.507             37.703             93.619
 Electronic               0.000              0.000              0.000
 Translational            0.889              2.981             41.025
 Rotational               0.889              2.981             30.227
 Vibrational             86.729             31.741             22.367
 Vibration     1          0.605              1.946              3.385
 Vibration     2          0.619              1.901              2.656
 Vibration     3          0.640              1.833              2.090
 Vibration     4          0.673              1.730              1.602
 Vibration     5          0.713              1.616              1.261
 Vibration     6          0.718              1.600              1.223
 Vibration     7          0.727              1.575              1.165
 Vibration     8          0.751              1.509              1.033
 Vibration     9          0.764              1.476              0.973
 Vibration    10          0.779              1.436              0.906
 Vibration    11          0.810              1.357              0.791
 Vibration    12          0.820              1.334              0.759
 Vibration    13          0.837              1.294              0.710
 Vibration    14          0.884              1.185              0.589
 Vibration    15          0.899              1.153              0.557

 Optimization completed.
    -- Stationary point found.
 Normal termination of Gaussian 09 at Mon May 20 13:37:57 2024.
