 Gaussian 09, Revision E.01,
 Gaussian 09:  ES64L-G09RevE.01 30-Nov-2015

 -----------------------------
 # opt freq wb97xd/6-31+g(d,p)
 -----------------------------

 ----------
 [No Title]
 ----------
 Symbolic Z-matrix:
 Charge =  0 Multiplicity = 1

 SCF Done:  E(RwB97XD) =  -571.107443977     A.U. after   16 cycles
 SCF Done:  E(RwB97XD) =  -571.107514369     A.U. after   12 cycles
 SCF Done:  E(RwB97XD) =  -571.107517509     A.U. after   11 cycles
 SCF Done:  E(RwB97XD) =  -571.107516550     A.U. after   11 cycles
 SCF Done:  E(RwB97XD) =  -571.107519667     A.U. after   10 cycles
 Optimization completed.
    -- Stationary point found.
 Normal termination of Gaussian 09 at Mon May 20 13:05:31 2024.

 ----------------------------------------------------------------------
 #N Geom=AllCheck Guess=TCheck SCRF=Check GenChk RwB97XD/6-31+G(d,p) Fr
 eq
 ----------------------------------------------------------------------

 Structure from the checkpoint file:  "lwWB97XDDHB.chk"
 ----------
 [No Title]
 ----------
 Charge =  0 Multiplicity = 1

                         Standard orientation:
 ---------------------------------------------------------------------
 Center     Atomic      Atomic             Coordinates (Angstroms)
 Number     Number       Type             X           Y           Z
 ---------------------------------------------------------------------
      1          6           0        0.231485    1.272024    0.000037
      2          6           0        0.464788   -0.116618    0.000061
      3          6           0       -0.626150   -0.993875    0.000046
      4          6           0       -1.931021   -0.522289   -0.000004
      5          6           0       -2.159533    0.852036   -0.000032
      6          6           0       -1.086479    1.733958    0.000001
      7          8           0       -2.936234   -1.446817   -0.000058
      8          6           0        1.845244   -0.671487    0.000095
      9          8           0        1.851662   -2.026625    0.000130
     10          8           0        2.875833   -0.040215   -0.000317
     11          8           0        1.275983    2.132855    0.000069
     12          1           0       -0.454393   -2.062879    0.000072
     13          1           0       -3.173374    1.244612   -0.000082
     14          1           0       -1.276830    2.804219   -0.000011
     15          1           0       -3.791619   -1.009100    0.000189
     16          1           0        2.781642   -2.289180   -0.000061
     17          1           0        0.946622    3.036262    0.000074
 ---------------------------------------------------------------------

 SCF Done:  E(RwB97XD) =  -571.107519667     A.U. after    1 cycles

 The electronic state is 1-A.
 Alpha  occ. eigenvalues --  -19.32611 -19.31996 -19.31899 -19.26548 -10.44174
 Alpha  occ. eigenvalues --  -10.38646 -10.37691 -10.33259 -10.33164 -10.32673
 Alpha  occ. eigenvalues --  -10.32013  -1.21700  -1.18327  -1.17910  -1.11978
 Alpha  occ. eigenvalues --   -0.97561  -0.88774  -0.85467  -0.77505  -0.74239
 Alpha  occ. eigenvalues --   -0.70864  -0.65682  -0.64717  -0.60025  -0.58236
 Alpha  occ. eigenvalues --   -0.57275  -0.55123  -0.54251  -0.52115  -0.51781
 Alpha  occ. eigenvalues --   -0.50776  -0.49571  -0.48456  -0.46255  -0.44926
 Alpha  occ. eigenvalues --   -0.41289  -0.40855  -0.36042  -0.35332  -0.29655
 Alpha virt. eigenvalues --    0.00800   0.05189   0.05906   0.06234   0.07261
 Alpha virt. eigenvalues --    0.08177   0.10437   0.10728   0.11073   0.12066
 Alpha virt. eigenvalues --    0.12113   0.13436   0.13693   0.15140   0.15553

 Mulliken charges:
               1
     1  C   -0.911507
     2  C    0.574851
     3  C   -0.047049
     4  C   -0.332200
     5  C    0.151502
     6  C    0.137491
     7  O   -0.540893
     8  C    0.788025
     9  O   -0.494411
    10  O   -0.456543
    11  O   -0.487823
    12  H    0.195802
    13  H    0.145093
    14  H    0.140474
    15  H    0.366128
    16  H    0.397118
    17  H    0.373944
 Sum of Mulliken charges =   0.00000

 Dipole moment (field-independent basis, Debye):
    X=             -3.7503    Y=              1.7526    Z=              0.0008  Tot=              4.1397
 Quadrupole moment (field-independent basis, Debye-Ang):
   XX=            -57.8064   YY=            -52.6827   ZZ=            -65.2837
   XY=            -10.4411   XZ=             -0.0003   YZ=              0.0003

  Exact polarizability: 124.806  -0.136 108.202  -0.002  -0.001  51.029
 Approx polarizability: 132.812   5.910 123.708  -0.003  -0.002  59.115

                      1                      2                      3
                      A                      A                      A
 Frequencies --     15.7900               119.2249               169.9316
 Red. masses --     11.4368                 5.3377                 5.2910
 Frc consts  --      0.0017                 0.0447                 0.0900
 IR Inten    --      2.4725                 3.3988                 4.7967

                      4                      5                      6
                      A                      A                      A
 Frequencies --    212.8495               249.2310               342.9348
 Red. masses --      7.4695                 1.0977                 7.0054
 Frc consts  --      0.1994                 0.0402                 0.4854
 IR Inten    --      2.8421               112.9359                 0.7454

                      7                      8                      9
                      A                      A                      A
 Frequencies --    348.3645               378.0250               400.6724
 Red. masses --      1.1429                 5.3548                 8.9221
 Frc consts  --      0.0817                 0.4508                 0.8439
 IR Inten    --     99.7049                 4.6512                 3.1729

                     10                     11                     12
                      A                      A                      A
 Frequencies --    407.7045               436.8217               488.7461
 Red. masses --      6.5430                 3.0000                 8.0632
 Frc consts  --      0.6408                 0.3373                 1.1348
 IR Inten    --      1.3107                 5.7290                 1.0434

                     13                     14                     15
                      A                      A                      A
 Frequencies --    549.6686               554.8646               603.9016
 Red. masses --      2.2389                 4.0456                 1.3734
 Frc consts  --      0.3986                 0.7338                 0.2951
 IR Inten    --      2.0176                36.8433               118.9834

                     16                     17                     18
                      A                      A                      A
 Frequencies --    674.0257               693.0276               741.6921
 Red. masses --      5.0054                 3.7329                 5.2939
 Frc consts  --      1.3398                 1.0563                 1.7158
 IR Inten    --     47.5999                21.3939                26.5734

                     19                     20                     21
                      A                      A                      A
 Frequencies --    797.3082               814.4508               824.2583
 Red. masses --      2.4061                 5.9582                 2.8358
 Frc consts  --      0.9012                 2.3286                 1.1351
 IR Inten    --      0.0013                51.6241                67.1740

                     22                     23                     24
                      A                      A                      A
 Frequencies --    908.7304               937.6458               971.4706
 Red. masses --      1.4778                 1.3786                 5.3509
 Frc consts  --      0.7190                 0.7141                 2.9753
 IR Inten    --      9.1680                 2.8311                11.3550

                     25                     26                     27
                      A                      A                      A
 Frequencies --   1089.4819              1174.9018              1191.5007
 Red. masses --      3.2624                 1.8120                 1.3344
 Frc consts  --      2.2815                 1.4737                 1.1162
 IR Inten    --     77.5701                56.5771               171.3234

                     28                     29                     30
                      A                      A                      A
 Frequencies --   1206.6629              1215.4732              1299.6958
 Red. masses --      1.5137                 1.1742                 2.0055
 Frc consts  --      1.2985                 1.0221                 1.9960
 IR Inten    --    182.5725               193.8450                35.8681

                     31                     32                     33
                      A                      A                      A
 Frequencies --   1336.6305              1351.5764              1369.6440
 Red. masses --     10.2046                 1.5045                 2.7825
 Frc consts  --     10.7416                 1.6193                 3.0754
 IR Inten    --     11.2932               223.3436                94.1318

                     34                     35                     36
                      A                      A                      A
 Frequencies --   1399.7315              1508.5898              1569.9395
 Red. masses --      3.9622                 3.4769                 3.1598
 Frc consts  --      4.5738                 4.6622                 4.5886
 IR Inten    --     64.7818                30.6631               206.8359

                     37                     38                     39
                      A                      A                      A
 Frequencies --   1678.0247              1713.7405              1853.5779
 Red. masses --      6.8235                 6.5383                10.3355
 Frc consts  --     11.3202                11.3138                20.9221
 IR Inten    --     59.1900                 6.2267               417.0741

                     40                     41                     42
                      A                      A                      A
 Frequencies --   3201.5170              3218.0106              3273.6430
 Red. masses --      1.0880                 1.0959                 1.0916
 Frc consts  --      6.5703                 6.6864                 6.8926
 IR Inten    --     15.7043                 9.9272                 3.0237

                     43                     44                     45
                      A                      A                      A
 Frequencies --   3863.0972              3912.2106              3926.1336
 Red. masses --      1.0647                 1.0663                 1.0665
 Frc consts  --      9.3620                 9.6158                 9.6862
 IR Inten    --    108.0873                69.7644                73.2573

 - Thermochemistry -
 -------------------
 Temperature   298.150 Kelvin.  Pressure   1.00000 Atm.
 Atom     1 has atomic number  6 and mass  12.00000

 Molecular mass:   154.02661 amu.
 Principal axes and moments of inertia in atomic units:
                           1         2         3
     Eigenvalues --  1021.607181963.808502985.41567
           X            0.99972  -0.02369   0.00001
           Y            0.02369   0.99972   0.00001
           Z           -0.00001  -0.00001   1.00000
 This molecule is an asymmetric top.
 Rotational symmetry number  1.
 Warning -- assumption of classical behavior for rotation
           may cause significant error
 Rotational temperatures (Kelvin)      0.08478     0.04411     0.02901
 Rotational constants (GHZ):           1.76657     0.91900     0.60452
 Zero-point vibrational energy     328943.9 (Joules/Mol)
                                   78.61948 (Kcal/Mol)
 Warning -- explicit consideration of  15 degrees of freedom as
           vibrations may cause significant error
 Vibrational temperatures:     22.72   171.54   244.49   306.24   358.59
          (Kelvin)            493.41   501.22   543.89   576.48   586.60
                              628.49   703.20   790.85   798.33   868.88
                              969.77   997.11  1067.13  1147.15  1171.81
                             1185.92  1307.46  1349.06  1397.73  1567.52
                             1690.42  1714.30  1736.12  1748.79  1869.97
                             1923.11  1944.61  1970.61  2013.90  2170.52
                             2258.79  2414.30  2465.69  2666.88  4606.26
                             4629.99  4710.04  5558.13  5628.79  5648.82

 Zero-point correction=                           0.125288 (Hartree/Particle)
 Thermal correction to Energy=                    0.134937
 Thermal correction to Enthalpy=                  0.135881
 Thermal correction to Gibbs Free Energy=         0.089228
 Sum of electronic and zero-point Energies=           -570.982232
 Sum of electronic and thermal Energies=              -570.972583
 Sum of electronic and thermal Enthalpies=            -570.971639
 Sum of electronic and thermal Free Energies=         -571.018291

                     E (Thermal)             CV                S
                      KCal/Mol        Cal/Mol-Kelvin    Cal/Mol-Kelvin
 Total                   84.674             36.598             98.189
 Electronic               0.000              0.000              0.000
 Translational            0.889              2.981             41.006
 Rotational               0.889              2.981             30.172
 Vibrational             82.897             30.637             27.011
 Vibration     1          0.593              1.986              7.104
 Vibration     2          0.609              1.933              3.113
 Vibration     3          0.625              1.879              2.436
 Vibration     4          0.644              1.821              2.019
 Vibration     5          0.662              1.764              1.736
 Vibration     6          0.722              1.590              1.198
 Vibration     7          0.726              1.579              1.174
 Vibration     8          0.748              1.517              1.047
 Vibration     9          0.767              1.469              0.960
 Vibration    10          0.772              1.453              0.935
 Vibration    11          0.797              1.390              0.837
 Vibration    12          0.845              1.275              0.687
 Vibration    13          0.905              1.140              0.545
 Vibration    14          0.910              1.129              0.534
 Vibration    15          0.962              1.024              0.443

 Optimization completed.
    -- Stationary point found.
 Normal termination of Gaussian 09 at Mon May 20 13:07:28 2024.
