 Gaussian 09, Revision E.01,
 Gaussian 09:  ES64L-G09RevE.01 30-Nov-2015

 -----------------------------
 # opt freq wb97xd/6-31+g(d,p)
 -----------------------------

 ----------
 [No Title]
 ----------
 Symbolic Z-matrix:
 Charge =  1 Multiplicity = 1

 SCF Done:  E(RwB97XD) =  -571.441506107     A.U. after   16 cycles
 SCF Done:  E(RwB97XD) =  -571.441589871     A.U. after   11 cycles
 SCF Done:  E(RwB97XD) =  -571.441592436     A.U. after   10 cycles
 SCF Done:  E(RwB97XD) =  -571.441592581     A.U. after   10 cycles
 Optimization completed.
    -- Stationary point found.
 Normal termination of Gaussian 09 at Mon May 20 13:40:00 2024.

 ----------------------------------------------------------------------
 #N Geom=AllCheck Guess=TCheck SCRF=Check GenChk RwB97XD/6-31+G(d,p) Fr
 eq
 ----------------------------------------------------------------------

 Structure from the checkpoint file:  "2WB97XDDHB21.chk"
 ----------
 [No Title]
 ----------
 Charge =  1 Multiplicity = 1

                         Standard orientation:
 ---------------------------------------------------------------------
 Center     Atomic      Atomic             Coordinates (Angstroms)
 Number     Number       Type             X           Y           Z
 ---------------------------------------------------------------------
      1          6           0        0.219279    1.271222   -0.000007
      2          6           0        0.422685   -0.135598   -0.000007
      3          6           0       -0.694113   -1.012594    0.000012
      4          6           0       -1.977654   -0.514863    0.000020
      5          6           0       -2.167243    0.880808    0.000014
      6          6           0       -1.094401    1.751076    0.000007
      7          8           0       -2.993220   -1.401862    0.000008
      8          6           0        1.720569   -0.715440   -0.000014
      9          8           0        1.804755   -2.017260    0.000079
     10          8           0        2.780081    0.031936   -0.000109
     11          8           0        1.276289    2.087894   -0.000013
     12          1           0       -0.548068   -2.085537    0.000014
     13          1           0       -3.173862    1.290230    0.000014
     14          1           0       -1.272458    2.822008    0.000007
     15          1           0       -3.853882   -0.971239    0.000147
     16          1           0        2.697137   -2.389863   -0.000008
     17          1           0        3.629545   -0.431836   -0.000039
     18          1           0        1.003618    3.012911   -0.000006
 ---------------------------------------------------------------------

 SCF Done:  E(RwB97XD) =  -571.441592581     A.U. after    1 cycles

 The electronic state is 1-A.
 Alpha  occ. eigenvalues --  -19.55074 -19.55067 -19.47915 -19.44580 -10.67687
 Alpha  occ. eigenvalues --  -10.55392 -10.52054 -10.49939 -10.48231 -10.47244
 Alpha  occ. eigenvalues --  -10.47082  -1.46423  -1.38187  -1.34629  -1.31102
 Alpha  occ. eigenvalues --   -1.13472  -1.06871  -1.00836  -0.97822  -0.93620
 Alpha  occ. eigenvalues --   -0.89290  -0.87855  -0.82664  -0.80343  -0.77358
 Alpha  occ. eigenvalues --   -0.77029  -0.75345  -0.71742  -0.68579  -0.67706
 Alpha  occ. eigenvalues --   -0.67080  -0.66639  -0.65413  -0.65131  -0.63896
 Alpha  occ. eigenvalues --   -0.60318  -0.58425  -0.55980  -0.51118  -0.44216
 Alpha virt. eigenvalues --   -0.18963  -0.10856  -0.08443  -0.05648  -0.05086
 Alpha virt. eigenvalues --   -0.04788  -0.03742  -0.03045  -0.02292  -0.01548
 Alpha virt. eigenvalues --    0.00102   0.01225   0.02023   0.02586   0.03315

 Mulliken charges:
               1
     1  C   -0.652768
     2  C    0.271290
     3  C    0.014514
     4  C   -0.399227
     5  C    0.234005
     6  C    0.151288
     7  O   -0.511514
     8  C    0.932819
     9  O   -0.400691
    10  O   -0.395376
    11  O   -0.499504
    12  H    0.213809
    13  H    0.191024
    14  H    0.185505
    15  H    0.388280
    16  H    0.417501
    17  H    0.434224
    18  H    0.424822
 Sum of Mulliken charges =   1.00000

 Dipole moment (field-independent basis, Debye):
    X=              4.1277    Y=              0.2885    Z=              0.0002  Tot=              4.1378
 Quadrupole moment (field-independent basis, Debye-Ang):
   XX=            -13.4037   YY=            -40.0877   ZZ=            -63.4116
   XY=            -17.2830   XZ=             -0.0013   YZ=              0.0002

  Exact polarizability: 133.595  -8.602 111.252  -0.001  -0.001  46.350
 Approx polarizability: 141.470  -5.080 127.581  -0.001  -0.001  54.718

                      1                      2                      3
                      A                      A                      A
 Frequencies --     38.5383               108.9766               160.1451
 Red. masses --     12.0677                 4.8306                 5.3453
 Frc consts  --      0.0106                 0.0338                 0.0808
 IR Inten    --      0.0744                14.8423                 7.4901

                      4                      5                      6
                      A                      A                      A
 Frequencies --    219.2844               288.4360               320.6208
 Red. masses --      6.3048                 1.1214                 1.0834
 Frc consts  --      0.1786                 0.0550                 0.0656
 IR Inten    --     10.8924               136.6600                10.5021

                      7                      8                      9
                      A                      A                      A
 Frequencies --    346.7721               364.9577               398.1861
 Red. masses --      6.2868                 4.0019                 7.5884
 Frc consts  --      0.4454                 0.3141                 0.7089
 IR Inten    --      0.3507                 0.1531                 0.4834

                     10                     11                     12
                      A                      A                      A
 Frequencies --    420.2500               432.8948               451.6580
 Red. masses --      6.0982                 2.3558                 1.1735
 Frc consts  --      0.6345                 0.2601                 0.1410
 IR Inten    --      0.6124                56.7006                60.5826

                     13                     14                     15
                      A                      A                      A
 Frequencies --    483.4297               523.7891               554.8030
 Red. masses --      7.8823                 1.3737                 2.2760
 Frc consts  --      1.0853                 0.2221                 0.4128
 IR Inten    --      2.2469               105.3539               183.8517

                     16                     17                     18
                      A                      A                      A
 Frequencies --    572.2744               663.7671               692.0023
 Red. masses --      4.0621                 4.3227                 4.5531
 Frc consts  --      0.7838                 1.1221                 1.2846
 IR Inten    --     19.1214                50.3993                 4.2537

                     19                     20                     21
                      A                      A                      A
 Frequencies --    743.0331               788.3488               823.9794
 Red. masses --      5.1290                 4.8467                 6.0088
 Frc consts  --      1.6684                 1.7748                 2.4037
 IR Inten    --     17.8688                 0.1580                37.7656

                     22                     23                     24
                      A                      A                      A
 Frequencies --    842.0009               892.1153               977.1207
 Red. masses --      1.7927                 1.5693                 1.3557
 Frc consts  --      0.7488                 0.7359                 0.7626
 IR Inten    --     50.5881                15.6331                 0.4188

                     25                     26                     27
                      A                      A                      A
 Frequencies --    984.4235              1118.9535              1121.4201
 Red. masses --      4.7345                 2.9144                 1.1166
 Frc consts  --      2.7033                 2.1499                 0.8274
 IR Inten    --     25.1165               122.2642               177.1303

                     28                     29                     30
                      A                      A                      A
 Frequencies --   1171.3247              1205.4112              1208.4664
 Red. masses --      1.8311                 1.2471                 1.5322
 Frc consts  --      1.4802                 1.0676                 1.3184
 IR Inten    --    274.8124                78.8540               267.9421

                     31                     32                     33
                      A                      A                      A
 Frequencies --   1223.3322              1325.2959              1343.5786
 Red. masses --      1.1865                 2.0492                 7.5643
 Frc consts  --      1.0462                 2.1206                 8.0454
 IR Inten    --    149.7892                37.7001                99.8505

                     34                     35                     36
                      A                      A                      A
 Frequencies --   1368.0293              1429.2791              1484.9493
 Red. masses --      1.5611                 4.4010                 3.2202
 Frc consts  --      1.7214                 5.2970                 4.1837
 IR Inten    --    220.6968                56.6131                 7.2447

                     37                     38                     39
                      A                      A                      A
 Frequencies --   1549.0351              1585.6793              1630.2755
 Red. masses --      4.2153                 4.2770                 4.6868
 Frc consts  --      5.9594                 6.3361                 7.3392
 IR Inten    --     35.9670               513.9640               843.8464

                     40                     41                     42
                      A                      A                      A
 Frequencies --   1651.7245              1724.8541              3222.4642
 Red. masses --      6.4541                 6.0003                 1.0899
 Frc consts  --     10.3743                10.5179                 6.6684
 IR Inten    --    104.7173                35.4370                 2.6864

                     43                     44                     45
                      A                      A                      A
 Frequencies --   3236.1766              3276.9197              3836.2120
 Red. masses --      1.0966                 1.0923                 1.0683
 Frc consts  --      6.7666                 6.9108                 9.2628
 IR Inten    --      0.3258                 7.3886               109.0690

                     46                     47                     48
                      A                      A                      A
 Frequencies --   3852.8515              3884.2536              3912.2794
 Red. masses --      1.0669                 1.0668                 1.0671
 Frc consts  --      9.3313                 9.4827                 9.6235
 IR Inten    --    527.0831               174.1014               139.9195

 - Thermochemistry -
 -------------------
 Temperature   298.150 Kelvin.  Pressure   1.00000 Atm.
 Atom     1 has atomic number  6 and mass  12.00000

 Molecular mass:   155.03443 amu.
 Principal axes and moments of inertia in atomic units:
                           1         2         3
     Eigenvalues --  1012.439301984.291812996.73111
           X            0.99960  -0.02839   0.00001
           Y            0.02839   0.99960   0.00001
           Z           -0.00001  -0.00001   1.00000
 This molecule is an asymmetric top.
 Rotational symmetry number  1.
 Warning -- assumption of classical behavior for rotation
           may cause significant error
 Rotational temperatures (Kelvin)      0.08555     0.04365     0.02890
 Rotational constants (GHZ):           1.78257     0.90951     0.60224
 Zero-point vibrational energy     361598.6 (Joules/Mol)
                                   86.42415 (Kcal/Mol)
 Warning -- explicit consideration of  16 degrees of freedom as
           vibrations may cause significant error
 Vibrational temperatures:     55.45   156.79   230.41   315.50   414.99
          (Kelvin)            461.30   498.93   525.09   572.90   604.65
                              622.84   649.83   695.55   753.61   798.24
                              823.37   955.01   995.64  1069.06  1134.26
                             1185.52  1211.45  1283.55  1405.86  1416.36
                             1609.92  1613.47  1685.27  1734.32  1738.71
                             1760.10  1906.80  1933.11  1968.29  2056.41
                             2136.51  2228.71  2281.44  2345.60  2376.46
                             2481.68  4636.40  4656.13  4714.75  5519.45
                             5543.39  5588.57  5628.89

 Zero-point correction=                           0.137726 (Hartree/Particle)
 Thermal correction to Energy=                    0.147644
 Thermal correction to Enthalpy=                  0.148588
 Thermal correction to Gibbs Free Energy=         0.102258
 Sum of electronic and zero-point Energies=           -571.303867
 Sum of electronic and thermal Energies=              -571.293949
 Sum of electronic and thermal Enthalpies=            -571.293005
 Sum of electronic and thermal Free Energies=         -571.339334

                     E (Thermal)             CV                S
                      KCal/Mol        Cal/Mol-Kelvin    Cal/Mol-Kelvin
 Total                   92.648             38.214             97.509
 Electronic               0.000              0.000              0.000
 Translational            0.889              2.981             41.025
 Rotational               0.889              2.981             30.177
 Vibrational             90.870             32.252             26.307
 Vibration     1          0.594              1.981              5.333
 Vibration     2          0.606              1.942              3.287
 Vibration     3          0.622              1.891              2.548
 Vibration     4          0.647              1.812              1.965
 Vibration     5          0.685              1.695              1.483
 Vibration     6          0.706              1.634              1.307
 Vibration     7          0.725              1.582              1.181
 Vibration     8          0.738              1.544              1.101
 Vibration     9          0.764              1.474              0.969
 Vibration    10          0.783              1.426              0.891
 Vibration    11          0.794              1.399              0.849
 Vibration    12          0.810              1.357              0.791
 Vibration    13          0.840              1.287              0.701
 Vibration    14          0.879              1.197              0.601
 Vibration    15          0.910              1.129              0.534
 Vibration    16          0.928              1.091              0.500

 Optimization completed.
    -- Stationary point found.
 Normal termination of Gaussian 09 at Mon May 20 13:41:57 2024.
