 Gaussian 09, Revision E.01,
 Gaussian 09:  ES64L-G09RevE.01 30-Nov-2015

 ---------------------------
 # opt freq apfd/6-31+g(d,p)
 ---------------------------

 ----------
 [No Title]
 ----------
 Symbolic Z-matrix:
 Charge =  0 Multiplicity = 1

 SCF Done:  E(RAPFD) =  -653.320391744     A.U. after   14 cycles
 SCF Done:  E(RAPFD) =  -653.320307827     A.U. after   12 cycles
 SCF Done:  E(RAPFD) =  -653.320590205     A.U. after    8 cycles
 SCF Done:  E(RAPFD) =  -653.319716207     A.U. after   13 cycles
 SCF Done:  E(RAPFD) =  -653.320724533     A.U. after    9 cycles
 SCF Done:  E(RAPFD) =  -653.320750000     A.U. after   11 cycles
 SCF Done:  E(RAPFD) =  -653.320762692     A.U. after   11 cycles
 SCF Done:  E(RAPFD) =  -653.320767718     A.U. after   11 cycles
 SCF Done:  E(RAPFD) =  -653.320771368     A.U. after   11 cycles
 SCF Done:  E(RAPFD) =  -653.320777780     A.U. after   11 cycles
 SCF Done:  E(RAPFD) =  -653.320781801     A.U. after   11 cycles
 SCF Done:  E(RAPFD) =  -653.320782389     A.U. after   10 cycles
 Optimization completed.
    -- Stationary point found.
 Normal termination of Gaussian 09 at Tue Jun 11 13:51:41 2024.

 ----------------------------------------------------------------------
 #N Geom=AllCheck Guess=TCheck SCRF=Check GenChk RAPFD/6-31+G(d,p) Freq
 ----------------------------------------------------------------------

 Structure from the checkpoint file:  "APFDDMAN.chk"
 ----------
 [No Title]
 ----------
 Charge =  0 Multiplicity = 1

                         Standard orientation:
 ---------------------------------------------------------------------
 Center     Atomic      Atomic             Coordinates (Angstroms)
 Number     Number       Type             X           Y           Z
 ---------------------------------------------------------------------
      1          6           0        0.683067    2.433166    0.210686
      2          6           0        2.082773    2.392494    0.356287
      3          6           0        2.754966    1.206943    0.200799
      4          6           0        2.038535   -0.000691    0.000014
      5          6           0        0.603780   -0.000190    0.000025
      6          6           0       -0.061595    1.283229   -0.020553
      7          6           0        2.754117   -1.208823   -0.200798
      8          6           0        2.081092   -2.393899   -0.356317
      9          6           0        0.681358   -2.433594   -0.210722
     10          6           0       -0.062494   -1.283145    0.020569
     11          7           0       -1.435604    1.366195   -0.283878
     12          7           0       -1.436555   -1.365178    0.283906
     13          6           0       -1.893963    0.832122   -1.553529
     14          6           0       -2.136174    2.569826    0.087894
     15          6           0       -2.137950   -2.568276   -0.088026
     16          6           0       -1.894517   -0.831015    1.553665
     17          1           0        0.190150    3.399462    0.213154
     18          1           0        2.627137    3.317634    0.529363
     19          1           0        3.840923    1.170236    0.233705
     20          1           0        3.840099   -1.172876   -0.233716
     21          1           0        2.624807   -3.319415   -0.529422
     22          1           0        0.187763   -3.399546   -0.213219
     23          1           0       -1.261621    0.004812   -1.870848
     24          1           0       -2.919685    0.459597   -1.456811
     25          1           0       -1.871069    1.607865   -2.338655
     26          1           0       -1.885144    2.853243    1.113784
     27          1           0       -1.928171    3.428709   -0.576551
     28          1           0       -3.212522    2.373479    0.041842
     29          1           0       -1.887132   -2.851712   -1.113962
     30          1           0       -1.930517   -3.427398    0.576289
     31          1           0       -3.214163   -2.371203   -0.041922
     32          1           0       -1.261595   -0.004208    1.871128
     33          1           0       -2.919984   -0.457761    1.457043
     34          1           0       -1.872142   -1.606922    2.338644
 ---------------------------------------------------------------------

 SCF Done:  E(RAPFD) =  -653.320782389     A.U. after    1 cycles

 The electronic state is 1-A.
 Alpha  occ. eigenvalues --  -14.38005 -14.38005 -10.25200 -10.25200 -10.23378
 Alpha  occ. eigenvalues --  -10.23378 -10.22728 -10.22728 -10.22311 -10.22142
 Alpha  occ. eigenvalues --  -10.21202 -10.21202 -10.20617 -10.20617 -10.20513
 Alpha  occ. eigenvalues --  -10.20511  -0.97179  -0.95485  -0.87730  -0.82912
 Alpha  occ. eigenvalues --   -0.78067  -0.75708  -0.73860  -0.72722  -0.72426
 Alpha  occ. eigenvalues --   -0.66710  -0.66621  -0.62222  -0.60945  -0.56950
 Alpha  occ. eigenvalues --   -0.52984  -0.52185  -0.51131  -0.49038  -0.48271
 Alpha  occ. eigenvalues --   -0.47487  -0.46823  -0.46142  -0.45106  -0.43064
 Alpha  occ. eigenvalues --   -0.41717  -0.41271  -0.40412  -0.40122  -0.39877
 Alpha  occ. eigenvalues --   -0.38829  -0.38763  -0.37941  -0.37751  -0.37483
 Alpha  occ. eigenvalues --   -0.34863  -0.34035  -0.33410  -0.29626  -0.26578
 Alpha  occ. eigenvalues --   -0.24830  -0.20647  -0.19116
 Alpha virt. eigenvalues --   -0.03268  -0.01241   0.00830   0.01850   0.02450
 Alpha virt. eigenvalues --    0.02681   0.03703   0.03831   0.04091   0.04528
 Alpha virt. eigenvalues --    0.05688   0.05949   0.05954   0.06373   0.06829

 Mulliken charges:
               1
     1  C   -0.366619
     2  C   -0.310035
     3  C   -0.385654
     4  C    0.224674
     5  C    0.115645
     6  C   -0.035240
     7  C   -0.385686
     8  C   -0.309913
     9  C   -0.366536
    10  C   -0.035248
    11  N    0.079960
    12  N    0.079927
    13  C   -0.258845
    14  C   -0.299085
    15  C   -0.299080
    16  C   -0.258832
    17  H    0.144690
    18  H    0.152241
    19  H    0.150633
    20  H    0.150634
    21  H    0.152242
    22  H    0.144691
    23  H    0.176728
    24  H    0.154365
    25  H    0.144703
    26  H    0.169999
    27  H    0.153358
    28  H    0.158559
    29  H    0.170002
    30  H    0.153355
    31  H    0.158561
    32  H    0.176733
    33  H    0.154369
    34  H    0.144705
 Sum of Mulliken charges =  -0.00000

 Dipole moment (field-independent basis, Debye):
    X=             -1.8802    Y=              0.0005    Z=              0.0000  Tot=              1.8802
 Quadrupole moment (field-independent basis, Debye-Ang):
   XX=            -89.7848   YY=            -89.5119   ZZ=           -101.0520
   XY=              0.0001   XZ=              0.0004   YZ=              1.6896

  Exact polarizability: 221.107   0.001 223.573   0.003   6.125 121.763
 Approx polarizability: 339.879   0.005 351.614   0.007  19.926 179.281

                      1                      2                      3
                      A                      A                      A
 Frequencies --     56.8457                74.1580                90.5445
 Red. masses --      3.7913                 1.7086                 2.0890
 Frc consts  --      0.0072                 0.0055                 0.0101
 IR Inten    --      0.7381                 5.0221                 0.1270

                      4                      5                      6
                      A                      A                      A
 Frequencies --    123.1398               127.4138               145.2479
 Red. masses --      2.8047                 2.9991                 2.9269
 Frc consts  --      0.0251                 0.0287                 0.0364
 IR Inten    --      1.6303                 0.1599                 0.2805

                      7                      8                      9
                      A                      A                      A
 Frequencies --    177.8650               213.3184               256.6204
 Red. masses --      2.0321                 2.3524                 1.6018
 Frc consts  --      0.0379                 0.0631                 0.0622
 IR Inten    --      1.0483                 0.0357                 1.2436

                     10                     11                     12
                      A                      A                      A
 Frequencies --    277.0364               305.2542               317.4952
 Red. masses --      1.6385                 1.4135                 1.9501
 Frc consts  --      0.0741                 0.0776                 0.1158
 IR Inten    --      4.0160                 2.2526                 2.1975

                     13                     14                     15
                      A                      A                      A
 Frequencies --    321.1812               336.8500               361.8152
 Red. masses --      2.8150                 1.7099                 2.4040
 Frc consts  --      0.1711                 0.1143                 0.1854
 IR Inten    --      4.2548                 0.1229                 1.1288

                     16                     17                     18
                      A                      A                      A
 Frequencies --    368.1750               390.6588               454.4040
 Red. masses --      3.3487                 2.8124                 2.9621
 Frc consts  --      0.2674                 0.2529                 0.3604
 IR Inten    --      4.1657                 2.4343                 1.2774

                     19                     20                     21
                      A                      A                      A
 Frequencies --    480.0839               483.1048               535.2575
 Red. masses --      4.5370                 3.4897                 3.7415
 Frc consts  --      0.6161                 0.4799                 0.6316
 IR Inten    --      5.7357                 2.7652                 1.8522

                     22                     23                     24
                      A                      A                      A
 Frequencies --    536.2226               547.4889               549.0924
 Red. masses --      4.1416                 4.0685                 5.5924
 Frc consts  --      0.7016                 0.7185                 0.9934
 IR Inten    --      5.1538                 0.0838                 1.9445

                     25                     26                     27
                      A                      A                      A
 Frequencies --    640.9452               654.2314               676.6734
 Red. masses --      4.1369                 3.9090                 3.0791
 Frc consts  --      1.0013                 0.9858                 0.8307
 IR Inten    --      1.5889                 8.8983                 8.8174

                     28                     29                     30
                      A                      A                      A
 Frequencies --    767.4326               772.7372               778.6602
 Red. masses --      1.3299                 1.8646                 4.9679
 Frc consts  --      0.4615                 0.6560                 1.7747
 IR Inten    --      0.1926                64.9012                 0.2785

                     31                     32                     33
                      A                      A                      A
 Frequencies --    793.5113               827.2599               875.5691
 Red. masses --      5.2504                 2.8050                 1.4362
 Frc consts  --      1.9478                 1.1310                 0.6487
 IR Inten    --      3.0827                53.5756                 0.3997

                     34                     35                     36
                      A                      A                      A
 Frequencies --    893.0937               925.1986               972.3553
 Red. masses --      1.5069                 4.2736                 1.2958
 Frc consts  --      0.7081                 2.1553                 0.7219
 IR Inten    --      2.6828                 2.1947                 0.5719

                     37                     38                     39
                      A                      A                      A
 Frequencies --    972.5631               982.0103              1067.2280
 Red. masses --      3.5701                 1.3181                 2.4251
 Frc consts  --      1.9896                 0.7489                 1.6274
 IR Inten    --     29.2775                 0.5688                88.8972

                     40                     41                     42
                      A                      A                      A
 Frequencies --   1067.3003              1090.9810              1091.2224
 Red. masses --      3.8785                 1.3543                 1.3597
 Frc consts  --      2.6031                 0.9497                 0.9540
 IR Inten    --     31.2618                 8.6629                12.8555

                     43                     44                     45
                      A                      A                      A
 Frequencies --   1115.5252              1117.5539              1138.1719
 Red. masses --      1.2813                 1.2962                 1.8208
 Frc consts  --      0.9394                 0.9538                 1.3897
 IR Inten    --      9.9637                 4.4025                 0.0019

                     46                     47                     48
                      A                      A                      A
 Frequencies --   1143.1453              1162.4674              1164.6819
 Red. masses --      1.6378                 1.4456                 1.4460
 Frc consts  --      1.2610                 1.1510                 1.1557
 IR Inten    --      3.7754                 1.3858                47.0967

                     49                     50                     51
                      A                      A                      A
 Frequencies --   1191.9858              1202.0976              1233.2462
 Red. masses --      1.2915                 1.2799                 1.6037
 Frc consts  --      1.0812                 1.0897                 1.4370
 IR Inten    --      0.7430                 2.7732                12.8118

                     52                     53                     54
                      A                      A                      A
 Frequencies --   1240.9973              1247.3617              1273.6518
 Red. masses --      2.3736                 1.7119                 3.2494
 Frc consts  --      2.1538                 1.5693                 3.1057
 IR Inten    --      9.4398                16.0647                41.3039

                     55                     56                     57
                      A                      A                      A
 Frequencies --   1274.4744              1369.6847              1370.1276
 Red. masses --      4.2578                 1.9143                 3.4960
 Frc consts  --      4.0747                 2.1160                 3.8667
 IR Inten    --      4.3284                21.8012                12.5322

                     58                     59                     60
                      A                      A                      A
 Frequencies --   1401.8947              1409.2011              1435.5699
 Red. masses --      3.5592                 7.3154                 2.4010
 Frc consts  --      4.1213                 8.5592                 2.9154
 IR Inten    --     18.0436                13.4122                78.2639

                     61                     62                     63
                      A                      A                      A
 Frequencies --   1445.4415              1448.9433              1466.9445
 Red. masses --      1.1583                 1.3296                 1.5225
 Frc consts  --      1.4259                 1.6447                 1.9303
 IR Inten    --      0.6609                18.7152                14.9194

                     64                     65                     66
                      A                      A                      A
 Frequencies --   1471.7160              1475.5074              1479.6174
 Red. masses --      1.3243                 1.0840                 1.0698
 Frc consts  --      1.6900                 1.3904                 1.3799
 IR Inten    --      2.9868                 4.6439                 7.6940

                     67                     68                     69
                      A                      A                      A
 Frequencies --   1483.6751              1490.6685              1494.3948
 Red. masses --      1.4255                 1.0890                 1.0552
 Frc consts  --      1.8488                 1.4258                 1.3884
 IR Inten    --      7.4305                 5.0652                30.9607

                     70                     71                     72
                      A                      A                      A
 Frequencies --   1496.8980              1501.8889              1512.6075
 Red. masses --      1.0806                 1.0588                 1.5669
 Frc consts  --      1.4265                 1.4071                 2.1123
 IR Inten    --     18.8810                 2.9458                15.5729

                     73                     74                     75
                      A                      A                      A
 Frequencies --   1528.6938              1531.8910              1570.2784
 Red. masses --      1.2920                 1.1834                 4.1303
 Frc consts  --      1.7790                 1.6362                 6.0004
 IR Inten    --     26.8967                53.5110                35.3821

                     76                     77                     78
                      A                      A                      A
 Frequencies --   1643.8551              1656.6435              1672.5349
 Red. masses --      5.8407                 5.8022                 6.2927
 Frc consts  --      9.2992                 9.3821                10.3714
 IR Inten    --    245.0668                 3.2524                15.6160

                     79                     80                     81
                      A                      A                      A
 Frequencies --   2961.6872              2962.1669              2979.7151
 Red. masses --      1.0575                 1.0573                 1.0568
 Frc consts  --      5.4650                 5.4660                 5.5283
 IR Inten    --    182.0436                23.2112               239.1886

                     82                     83                     84
                      A                      A                      A
 Frequencies --   2981.5007              3086.8515              3087.5224
 Red. masses --      1.0565                 1.0759                 1.0759
 Frc consts  --      5.5333                 6.0400                 6.0426
 IR Inten    --     62.4193                20.5270                47.8995

                     85                     86                     87
                      A                      A                      A
 Frequencies --   3089.9666              3091.4604              3144.7028
 Red. masses --      1.0850                 1.0845                 1.1027
 Frc consts  --      6.1036                 6.1069                 6.4249
 IR Inten    --     58.5185                22.4652                14.0807

                     88                     89                     90
                      A                      A                      A
 Frequencies --   3144.7116              3194.0653              3194.9585
 Red. masses --      1.1026                 1.0859                 1.0924
 Frc consts  --      6.4243                 6.5273                 6.5699
 IR Inten    --     21.0203                 5.3552                 2.1167

                     91                     92                     93
                      A                      A                      A
 Frequencies --   3195.3246              3195.3767              3212.0348
 Red. masses --      1.0895                 1.0959                 1.0952
 Frc consts  --      6.5543                 6.5925                 6.6573
 IR Inten    --      4.7114                 8.2991                 7.6649

                     94                     95                     96
                      A                      A                      A
 Frequencies --   3214.0957              3233.2283              3233.3423
 Red. masses --      1.0944                 1.0923                 1.0922
 Frc consts  --      6.6609                 6.7279                 6.7273
 IR Inten    --     42.2333                20.0984                 0.7186

 - Thermochemistry -
 -------------------
 Temperature   298.150 Kelvin.  Pressure   1.00000 Atm.
 Atom     1 has atomic number  6 and mass  12.00000

 Molecular mass:   214.14700 amu.
 Principal axes and moments of inertia in atomic units:
                           1         2         3
     Eigenvalues --  2779.773182866.690144991.10632
           X            1.00000   0.00002  -0.00000
           Y           -0.00002   1.00000  -0.00126
           Z            0.00000   0.00126   1.00000
 This molecule is an asymmetric top.
 Rotational symmetry number  1.
 Warning -- assumption of classical behavior for rotation
           may cause significant error
 Rotational temperatures (Kelvin)      0.03116     0.03021     0.01735
 Rotational constants (GHZ):           0.64924     0.62956     0.36159
 Zero-point vibrational energy     774253.0 (Joules/Mol)
                                  185.05091 (Kcal/Mol)
 Warning -- explicit consideration of  24 degrees of freedom as
           vibrations may cause significant error
 Vibrational temperatures:     81.79   106.70   130.27   177.17   183.32
          (Kelvin)            208.98   255.91   306.92   369.22   398.59
                              439.19   456.80   462.11   484.65   520.57
                              529.72   562.07   653.79   690.73   695.08
                              770.12   771.50   787.71   790.02   922.18
                              941.29   973.58  1104.16  1111.80  1120.32
                             1141.68  1190.24  1259.75  1284.96  1331.15
                             1399.00  1399.30  1412.89  1535.50  1535.61
                             1569.68  1570.02  1604.99  1607.91  1637.57
                             1644.73  1672.53  1675.72  1715.00  1729.55
                             1774.36  1785.52  1794.67  1832.50  1833.68
                             1970.67  1971.31  2017.01  2027.52  2065.46
                             2079.67  2084.70  2110.60  2117.47  2122.92
                             2128.84  2134.67  2144.74  2150.10  2153.70
                             2160.88  2176.30  2199.45  2204.05  2259.28
                             2365.14  2383.54  2406.40  4261.20  4261.89
                             4287.14  4289.71  4441.29  4442.25  4445.77
                             4447.92  4524.52  4524.53  4595.54  4596.83
                             4597.35  4597.43  4621.40  4624.36  4651.89
                             4652.05

 Zero-point correction=                           0.294897 (Hartree/Particle)
 Thermal correction to Energy=                    0.309835
 Thermal correction to Enthalpy=                  0.310779
 Thermal correction to Gibbs Free Energy=         0.253961
 Sum of electronic and zero-point Energies=           -653.025885
 Sum of electronic and thermal Energies=              -653.010947
 Sum of electronic and thermal Enthalpies=            -653.010003
 Sum of electronic and thermal Free Energies=         -653.066822

                     E (Thermal)             CV                S
                      KCal/Mol        Cal/Mol-Kelvin    Cal/Mol-Kelvin
 Total                  194.424             59.060            119.585
 Electronic               0.000              0.000              0.000
 Translational            0.889              2.981             41.988
 Rotational               0.889              2.981             32.053
 Vibrational            192.647             53.098             45.544
 Vibration     1          0.596              1.975              4.564
 Vibration     2          0.599              1.966              4.040
 Vibration     3          0.602              1.956              3.648
 Vibration     4          0.610              1.930              3.050
 Vibration     5          0.611              1.926              2.985
 Vibration     6          0.617              1.908              2.734
 Vibration     7          0.628              1.870              2.351
 Vibration     8          0.644              1.821              2.015
 Vibration     9          0.666              1.752              1.685
 Vibration    10          0.678              1.716              1.552
 Vibration    11          0.696              1.664              1.388
 Vibration    12          0.704              1.640              1.323
 Vibration    13          0.707              1.633              1.304
 Vibration    14          0.718              1.602              1.227
 Vibration    15          0.736              1.551              1.114
 Vibration    16          0.741              1.538              1.087
 Vibration    17          0.758              1.490              0.998
 Vibration    18          0.813              1.351              0.783
 Vibration    19          0.836              1.294              0.710
 Vibration    20          0.839              1.288              0.702
 Vibration    21          0.890              1.172              0.576
 Vibration    22          0.891              1.170              0.573
 Vibration    23          0.903              1.145              0.549
 Vibration    24          0.904              1.142              0.546

 Normal termination of Gaussian 09 at Tue Jun 11 14:03:41 2024.
