 Gaussian 09, Revision E.01,
 Gaussian 09:  ES64L-G09RevE.01 30-Nov-2015

 ---------------------------
 # opt freq apfd/6-31+g(d,p)
 ---------------------------

 ----------
 [No Title]
 ----------
 Symbolic Z-matrix:
 Charge =  1 Multiplicity = 1

 SCF Done:  E(RAPFD) =  -653.727961909     A.U. after   14 cycles
 SCF Done:  E(RAPFD) =  -653.727736932     A.U. after   12 cycles
 SCF Done:  E(RAPFD) =  -653.728210614     A.U. after    8 cycles
 SCF Done:  E(RAPFD) =  -653.728114484     A.U. after   12 cycles
 SCF Done:  E(RAPFD) =  -653.728375114     A.U. after    7 cycles
 SCF Done:  E(RAPFD) =  -653.728414983     A.U. after   10 cycles
 SCF Done:  E(RAPFD) =  -653.728390774     A.U. after   11 cycles
 SCF Done:  E(RAPFD) =  -653.728431113     A.U. after   11 cycles
 SCF Done:  E(RAPFD) =  -653.728441400     A.U. after    9 cycles
 SCF Done:  E(RAPFD) =  -653.728443312     A.U. after   10 cycles
 SCF Done:  E(RAPFD) =  -653.728446071     A.U. after    9 cycles
 SCF Done:  E(RAPFD) =  -653.728445857     A.U. after    8 cycles
 SCF Done:  E(RAPFD) =  -653.728445905     A.U. after    8 cycles
 Optimization completed.
    -- Stationary point found.
 Normal termination of Gaussian 09 at Tue Jun 11 19:37:49 2024.

 ----------------------------------------------------------------------
 #N Geom=AllCheck Guess=TCheck SCRF=Check GenChk RAPFD/6-31+G(d,p) Freq
 ----------------------------------------------------------------------

 Structure from the checkpoint file:  "APFDDMANyang.chk"
 ----------
 [No Title]
 ----------
 Charge =  1 Multiplicity = 1

                         Standard orientation:
 ---------------------------------------------------------------------
 Center     Atomic      Atomic             Coordinates (Angstroms)
 Number     Number       Type             X           Y           Z
 ---------------------------------------------------------------------
      1          6           0       -0.729336   -2.438229   -0.000108
      2          6           0       -2.139102   -2.411213   -0.000099
      3          6           0       -2.797722   -1.205538   -0.000030
      4          6           0       -2.085520    0.019928    0.000037
      5          6           0       -0.651533    0.010538    0.000045
      6          6           0       -0.016226   -1.264442   -0.000036
      7          6           0       -2.777519    1.256420    0.000084
      8          6           0       -2.093065    2.447236    0.000130
      9          6           0       -0.682737    2.447073    0.000127
     10          6           0        0.025347    1.267253    0.000088
     11          7           0        1.451840   -1.295923   -0.000059
     12          7           0        1.480426    1.269131    0.000088
     13          6           0        2.017595   -1.898988    1.230992
     14          6           0        2.017571   -1.898686   -1.231270
     15          6           0        2.047934    1.868288   -1.219215
     16          6           0        2.047920    1.868453    1.219315
     17          1           0       -0.213862   -3.395024   -0.000168
     18          1           0       -2.692986   -3.344747   -0.000155
     19          1           0       -3.883937   -1.174545   -0.000034
     20          1           0       -3.864053    1.245180    0.000076
     21          1           0       -2.629073    3.391468    0.000165
     22          1           0       -0.150863    3.394825    0.000165
     23          1           0        1.685869   -0.174139    0.000076
     24          1           0        3.100603   -1.759547    1.227530
     25          1           0        1.580958   -1.404220    2.099109
     26          1           0        1.788969   -2.965789    1.270977
     27          1           0        3.100580   -1.759252   -1.227790
     28          1           0        1.580924   -1.403694   -2.099254
     29          1           0        1.788938   -2.965475   -1.271521
     30          1           0        1.606440    1.392849   -2.097436
     31          1           0        1.854465    2.945917   -1.271731
     32          1           0        3.129339    1.707894   -1.226521
     33          1           0        1.606415    1.393139    2.097599
     34          1           0        3.129325    1.708059    1.226658
     35          1           0        1.854451    2.946089    1.271681
 ---------------------------------------------------------------------

 SCF Done:  E(RAPFD) =  -653.728445905     A.U. after    1 cycles

 The electronic state is 1-A.
 Alpha  occ. eigenvalues --  -14.60208 -14.55190 -10.40332 -10.39463 -10.39463
 Alpha  occ. eigenvalues --  -10.39240 -10.37576 -10.37268 -10.37268 -10.36373
 Alpha  occ. eigenvalues --  -10.36312 -10.35428 -10.35058 -10.34987 -10.34685
 Alpha  occ. eigenvalues --  -10.34617  -1.16157  -1.11222  -1.02806  -0.97547
 Alpha  occ. eigenvalues --   -0.93085  -0.90123  -0.89679  -0.88018  -0.87108
 Alpha  occ. eigenvalues --   -0.83689  -0.80906  -0.78059  -0.75974  -0.73220
 Alpha  occ. eigenvalues --   -0.69290  -0.67785  -0.66982  -0.64740  -0.64312
 Alpha  occ. eigenvalues --   -0.63309  -0.61528  -0.60860  -0.60238  -0.58287
 Alpha  occ. eigenvalues --   -0.57269  -0.57112  -0.55911  -0.55434  -0.54835
 Alpha  occ. eigenvalues --   -0.54535  -0.53690  -0.53347  -0.52711  -0.52143
 Alpha  occ. eigenvalues --   -0.51558  -0.48892  -0.48382  -0.47213  -0.43053
 Alpha  occ. eigenvalues --   -0.40092  -0.39158  -0.36084
 Alpha virt. eigenvalues --   -0.18307  -0.15152  -0.11474  -0.11472  -0.08995
 Alpha virt. eigenvalues --   -0.08474  -0.08274  -0.07905  -0.07181  -0.06232
 Alpha virt. eigenvalues --   -0.06040  -0.05676  -0.04880  -0.04600  -0.04578

 Mulliken charges:
               1
     1  C   -0.152980
     2  C   -0.279812
     3  C   -0.165502
     4  C   -0.249572
     5  C    0.035410
     6  C   -0.043917
     7  C   -0.192017
     8  C   -0.268397
     9  C   -0.162134
    10  C   -0.050365
    11  N   -0.298053
    12  N   -0.347195
    13  C   -0.206454
    14  C   -0.206473
    15  C   -0.200412
    16  C   -0.200397
    17  H    0.173540
    18  H    0.193781
    19  H    0.189406
    20  H    0.187955
    21  H    0.192530
    22  H    0.174259
    23  H    0.509231
    24  H    0.203149
    25  H    0.206717
    26  H    0.207027
    27  H    0.203151
    28  H    0.206709
    29  H    0.207031
    30  H    0.186980
    31  H    0.191740
    32  H    0.188171
    33  H    0.186993
    34  H    0.188169
    35  H    0.191732
 Sum of Mulliken charges =   1.00000

 Dipole moment (field-independent basis, Debye):
    X=              3.9510    Y=             -1.2629    Z=             -0.0002  Tot=              4.1479
 Quadrupole moment (field-independent basis, Debye-Ang):
   XX=            -62.3869   YY=            -64.2942   ZZ=            -91.5414
   XY=             -2.4546   XZ=             -0.0004   YZ=              0.0015

  Exact polarizability: 193.406   0.544 210.275  -0.001   0.005 108.899
 Approx polarizability: 288.157   0.542 347.007  -0.000   0.009 159.598

                      1                      2                      3
                      A                      A                      A
 Frequencies --     28.3376                89.2947               130.5098
 Red. masses --      3.4938                 2.7348                 3.3046
 Frc consts  --      0.0017                 0.0128                 0.0332
 IR Inten    --      0.0516                 0.1743                 0.3568

                      4                      5                      6
                      A                      A                      A
 Frequencies --    149.6289               173.4264               179.2222
 Red. masses --      2.2814                 2.6809                 3.1010
 Frc consts  --      0.0301                 0.0475                 0.0587
 IR Inten    --      0.1076                27.1148                 4.1325

                      7                      8                      9
                      A                      A                      A
 Frequencies --    191.4238               225.1643               234.9357
 Red. masses --      3.6595                 1.1358                 1.3898
 Frc consts  --      0.0790                 0.0339                 0.0452
 IR Inten    --      0.1736                 0.0673                 0.6947

                     10                     11                     12
                      A                      A                      A
 Frequencies --    243.2392               263.4182               267.9700
 Red. masses --      1.0946                 2.7230                 1.1254
 Frc consts  --      0.0382                 0.1113                 0.0476
 IR Inten    --      0.0086                 1.0642                 3.7123

                     13                     14                     15
                      A                      A                      A
 Frequencies --    279.4196               324.5110               324.8271
 Red. masses --      2.0460                 3.3415                 2.6505
 Frc consts  --      0.0941                 0.2073                 0.1648
 IR Inten    --      0.0212                 0.1101                 3.5261

                     16                     17                     18
                      A                      A                      A
 Frequencies --    383.3946               434.9397               453.5527
 Red. masses --      3.6818                 3.1245                 2.9858
 Frc consts  --      0.3189                 0.3483                 0.3619
 IR Inten    --     13.1824                49.6757                 0.3672

                     19                     20                     21
                      A                      A                      A
 Frequencies --    476.1598               503.5284               532.3227
 Red. masses --      3.3424                 5.1566                 4.4815
 Frc consts  --      0.4465                 0.7703                 0.7482
 IR Inten    --      0.4661                43.1654                21.7654

                     22                     23                     24
                      A                      A                      A
 Frequencies --    539.1254               539.7646               573.8015
 Red. masses --      4.4664                 3.5625                 3.8642
 Frc consts  --      0.7649                 0.6115                 0.7496
 IR Inten    --     17.5350                 0.0130                 3.0402

                     25                     26                     27
                      A                      A                      A
 Frequencies --    646.4025               669.8825               678.4190
 Red. masses --      4.0942                 3.1106                 3.4666
 Frc consts  --      1.0079                 0.8224                 0.9401
 IR Inten    --      0.0949                 0.0866               132.2175

                     28                     29                     30
                      A                      A                      A
 Frequencies --    778.7490               781.8946               790.4874
 Red. masses --      4.6906                 2.2943                 1.2919
 Frc consts  --      1.6760                 0.8264                 0.4756
 IR Inten    --      3.8294                61.1882                 0.2645

                     31                     32                     33
                      A                      A                      A
 Frequencies --    795.7976               846.9870               894.3497
 Red. masses --      5.2871                 2.1100                 3.7568
 Frc consts  --      1.9728                 0.8919                 1.7704
 IR Inten    --      0.4570                38.0228               124.6663

                     34                     35                     36
                      A                      A                      A
 Frequencies --    933.1952               933.3252               951.3991
 Red. masses --      1.3747                 3.7079                 1.4417
 Frc consts  --      0.7054                 1.9030                 0.7689
 IR Inten    --      0.1432                40.9184                 1.7145

                     37                     38                     39
                      A                      A                      A
 Frequencies --   1003.1560              1014.3473              1022.8100
 Red. masses --      1.3327                 1.3467                 3.0492
 Frc consts  --      0.7902                 0.8164                 1.8794
 IR Inten    --      0.0065                 0.4316                64.5156

                     40                     41                     42
                      A                      A                      A
 Frequencies --   1039.0635              1053.5744              1054.2780
 Red. masses --      1.8229                 3.3293                 1.6450
 Frc consts  --      1.1595                 2.1774                 1.0773
 IR Inten    --     11.2643                15.0569                14.1752

                     43                     44                     45
                      A                      A                      A
 Frequencies --   1093.3567              1106.8136              1112.4345
 Red. masses --      1.2214                 1.8415                 1.2506
 Frc consts  --      0.8603                 1.3291                 0.9119
 IR Inten    --      0.9800                93.5554                 0.9172

                     46                     47                     48
                      A                      A                      A
 Frequencies --   1122.6953              1173.5965              1196.2151
 Red. masses --      1.8096                 1.3691                 1.4607
 Frc consts  --      1.3439                 1.1110                 1.2315
 IR Inten    --      2.2397               160.8544                 3.8536

                     49                     50                     51
                      A                      A                      A
 Frequencies --   1199.4713              1202.4304              1216.3633
 Red. masses --      2.5044                 1.3189                 1.3961
 Frc consts  --      2.1229                 1.1235                 1.2170
 IR Inten    --      6.8132                32.3832                49.0547

                     52                     53                     54
                      A                      A                      A
 Frequencies --   1219.0763              1230.5978              1244.7027
 Red. masses --      3.2474                 1.4206                 1.5837
 Frc consts  --      2.8435                 1.2675                 1.4457
 IR Inten    --     10.7331                40.2258                43.9652

                     55                     56                     57
                      A                      A                      A
 Frequencies --   1258.7090              1293.7922              1314.7634
 Red. masses --      1.9350                 2.3912                 2.4564
 Frc consts  --      1.8062                 2.3583                 2.5018
 IR Inten    --      7.2495                 4.2175                30.7317

                     58                     59                     60
                      A                      A                      A
 Frequencies --   1357.7090              1407.8932              1425.9576
 Red. masses --      1.7324                 4.1649                 2.2250
 Frc consts  --      1.8815                 4.8640                 2.6656
 IR Inten    --    376.8536                 9.5935                85.3679

                     61                     62                     63
                      A                      A                      A
 Frequencies --   1427.7208              1442.9025              1447.4823
 Red. masses --      5.6960                 1.1447                 1.1432
 Frc consts  --      6.8408                 1.4042                 1.4112
 IR Inten    --      2.2259                 0.3434                11.6608

                     64                     65                     66
                      A                      A                      A
 Frequencies --   1477.4774              1477.6490              1483.1623
 Red. masses --      1.5131                 1.0402                 1.3872
 Frc consts  --      1.9461                 1.3381                 1.7979
 IR Inten    --      0.9020                 0.0199                 2.6875

                     67                     68                     69
                      A                      A                      A
 Frequencies --   1487.3609              1491.7855              1493.0290
 Red. masses --      1.0472                 1.1921                 1.0427
 Frc consts  --      1.3649                 1.5631                 1.3695
 IR Inten    --      2.4126                 1.7810                 2.9523

                     70                     71                     72
                      A                      A                      A
 Frequencies --   1500.8932              1508.7569              1510.8270
 Red. masses --      1.0429                 1.0563                 1.3037
 Frc consts  --      1.3842                 1.4167                 1.7533
 IR Inten    --     16.0527                14.4176                 5.5747

                     73                     74                     75
                      A                      A                      A
 Frequencies --   1516.2065              1522.6587              1534.3674
 Red. masses --      1.4968                 1.0878                 1.6546
 Frc consts  --      2.0274                 1.4860                 2.2951
 IR Inten    --     35.7850                33.0263               364.0892

                     76                     77                     78
                      A                      A                      A
 Frequencies --   1586.0902              1644.6004              1672.0505
 Red. masses --      2.7668                 6.9847                 5.1067
 Frc consts  --      4.1009                11.1306                 8.4117
 IR Inten    --    179.7288                 1.9797                63.1562

                     79                     80                     81
                      A                      A                      A
 Frequencies --   1696.2152              1707.0317              1928.0605
 Red. masses --      6.7711                 1.0779                 1.1000
 Frc consts  --     11.4781                 1.8506                 2.4093
 IR Inten    --     19.7680                 3.2508               468.2990

                     82                     83                     84
                      A                      A                      A
 Frequencies --   3057.5075              3060.7203              3087.9052
 Red. masses --      1.0352                 1.0363                 1.0318
 Frc consts  --      5.7015                 5.7198                 5.7967
 IR Inten    --     17.4868                19.0108                 6.1145

                     85                     86                     87
                      A                      A                      A
 Frequencies --   3090.9740              3142.6965              3143.2145
 Red. masses --      1.0327                 1.1012                 1.1027
 Frc consts  --      5.8130                 6.4081                 6.4186
 IR Inten    --      6.7252                17.7977                 0.7389

                     88                     89                     90
                      A                      A                      A
 Frequencies --   3174.4186              3176.0966              3185.1976
 Red. masses --      1.1053                 1.1057                 1.1076
 Frc consts  --      6.5625                 6.5718                 6.6205
 IR Inten    --      3.1609                14.4968                 0.0000

                     91                     92                     93
                      A                      A                      A
 Frequencies --   3186.1032              3199.2948              3200.3517
 Red. masses --      1.1065                 1.1066                 1.1072
 Frc consts  --      6.6179                 6.6734                 6.6816
 IR Inten    --      5.5890                 0.7778                 4.0950

                     94                     95                     96
                      A                      A                      A
 Frequencies --   3212.5960              3212.6505              3218.0226
 Red. masses --      1.0885                 1.0893                 1.0915
 Frc consts  --      6.6190                 6.6239                 6.6599
 IR Inten    --      1.0236                 3.7684                 0.0384

                     97                     98                     99
                      A                      A                      A
 Frequencies --   3219.7593              3236.9120              3239.3472
 Red. masses --      1.0911                 1.0976                 1.0973
 Frc consts  --      6.6647                 6.7760                 6.7843
 IR Inten    --      2.9017                 0.9894                 0.4965

 - Thermochemistry -
 -------------------
 Temperature   298.150 Kelvin.  Pressure   1.00000 Atm.
 Atom     1 has atomic number  6 and mass  12.00000

 Molecular mass:   215.15482 amu.
 Principal axes and moments of inertia in atomic units:
                           1         2         3
     Eigenvalues --  2795.295782976.344715040.33818
           X            1.00000  -0.00238   0.00001
           Y            0.00238   1.00000  -0.00005
           Z           -0.00001   0.00005   1.00000
 This molecule is an asymmetric top.
 Rotational symmetry number  1.
 Warning -- assumption of classical behavior for rotation
           may cause significant error
 Rotational temperatures (Kelvin)      0.03099     0.02910     0.01718
 Rotational constants (GHZ):           0.64564     0.60636     0.35806
 Zero-point vibrational energy     808715.7 (Joules/Mol)
                                  193.28769 (Kcal/Mol)
 Warning -- explicit consideration of  24 degrees of freedom as
           vibrations may cause significant error
 Vibrational temperatures:     40.77   128.48   187.77   215.28   249.52
          (Kelvin)            257.86   275.42   323.96   338.02   349.97
                              379.00   385.55   402.02   466.90   467.35
                              551.62   625.78   652.56   685.09   724.46
                              765.89   775.68   776.60   825.57   930.03
                              963.81   976.09  1120.44  1124.97  1137.33
                             1144.97  1218.62  1286.77  1342.66  1342.85
                             1368.85  1443.32  1459.42  1471.59  1494.98
                             1515.86  1516.87  1573.09  1592.46  1600.54
                             1615.31  1688.54  1721.08  1725.77  1730.03
                             1750.07  1753.98  1770.55  1790.85  1811.00
                             1861.48  1891.65  1953.44  2025.64  2051.63
                             2054.17  2076.01  2082.60  2125.76  2126.00
                             2133.94  2139.98  2146.34  2148.13  2159.45
                             2170.76  2173.74  2181.48  2190.76  2207.61
                             2282.03  2366.21  2405.70  2440.47  2456.03
                             2774.05  4399.07  4403.69  4442.80  4447.22
                             4521.63  4522.38  4567.27  4569.69  4582.78
                             4584.09  4603.07  4604.59  4622.20  4622.28
                             4630.01  4632.51  4657.19  4660.69

 Zero-point correction=                           0.308024 (Hartree/Particle)
 Thermal correction to Energy=                    0.322911
 Thermal correction to Enthalpy=                  0.323855
 Thermal correction to Gibbs Free Energy=         0.267107
 Sum of electronic and zero-point Energies=           -653.420422
 Sum of electronic and thermal Energies=              -653.405535
 Sum of electronic and thermal Enthalpies=            -653.404591
 Sum of electronic and thermal Free Energies=         -653.461339

                     E (Thermal)             CV                S
                      KCal/Mol        Cal/Mol-Kelvin    Cal/Mol-Kelvin
 Total                  202.629             59.268            119.436
 Electronic               0.000              0.000              0.000
 Translational            0.889              2.981             42.002
 Rotational               0.889              2.981             32.106
 Vibrational            200.852             53.307             45.329
 Vibration     1          0.593              1.984              5.943
 Vibration     2          0.602              1.957              3.675
 Vibration     3          0.612              1.923              2.939
 Vibration     4          0.618              1.903              2.677
 Vibration     5          0.627              1.875              2.398
 Vibration     6          0.629              1.868              2.337
 Vibration     7          0.634              1.852              2.214
 Vibration     8          0.650              1.803              1.917
 Vibration     9          0.655              1.787              1.841
 Vibration    10          0.659              1.774              1.779
 Vibration    11          0.670              1.740              1.639
 Vibration    12          0.673              1.732              1.609
 Vibration    13          0.680              1.712              1.537
 Vibration    14          0.709              1.626              1.287
 Vibration    15          0.709              1.626              1.286
 Vibration    16          0.753              1.506              1.026
 Vibration    17          0.796              1.394              0.843
 Vibration    18          0.812              1.353              0.785
 Vibration    19          0.833              1.303              0.720
 Vibration    20          0.859              1.242              0.649
 Vibration    21          0.887              1.179              0.582
 Vibration    22          0.894              1.164              0.567
 Vibration    23          0.895              1.162              0.566
 Vibration    24          0.930              1.088              0.497

 Optimization completed.
    -- Stationary point found.
 Normal termination of Gaussian 09 at Tue Jun 11 19:49:53 2024.
