 Gaussian 09, Revision E.01,
 Gaussian 09:  ES64L-G09RevE.01 30-Nov-2015

 -----------------------------
 # opt freq B2PLYP/6-31+g(d,p)
 -----------------------------

 ----------
 [No Title]
 ----------
 Symbolic Z-matrix:
 Charge =  1 Multiplicity = 1

 SCF Done:  E(RB2PLYP) =  -652.792665810     A.U. after   15 cycles
 E2(B2PLYP) =    -0.7523857612D+00 E(B2PLYP) =    -0.65354505157090D+03
 SCF Done:  E(RB2PLYP) =  -652.792334546     A.U. after   13 cycles
 E2(B2PLYP) =    -0.7528256332D+00 E(B2PLYP) =    -0.65354516017890D+03
 SCF Done:  E(RB2PLYP) =  -652.792069115     A.U. after   12 cycles
 E2(B2PLYP) =    -0.7532223526D+00 E(B2PLYP) =    -0.65354529146715D+03
 SCF Done:  E(RB2PLYP) =  -652.792633210     A.U. after   11 cycles
 E2(B2PLYP) =    -0.7528947307D+00 E(B2PLYP) =    -0.65354552794069D+03
 SCF Done:  E(RB2PLYP) =  -652.792710832     A.U. after   10 cycles
 E2(B2PLYP) =    -0.7528299616D+00 E(B2PLYP) =    -0.65354554079340D+03
 SCF Done:  E(RB2PLYP) =  -652.792766416     A.U. after   10 cycles
 E2(B2PLYP) =    -0.7527770458D+00 E(B2PLYP) =    -0.65354554346203D+03
 SCF Done:  E(RB2PLYP) =  -652.792776133     A.U. after    9 cycles
 E2(B2PLYP) =    -0.7527685879D+00 E(B2PLYP) =    -0.65354554472041D+03
 SCF Done:  E(RB2PLYP) =  -652.792798817     A.U. after   10 cycles
 E2(B2PLYP) =    -0.7527445403D+00 E(B2PLYP) =    -0.65354554335773D+03
 SCF Done:  E(RB2PLYP) =  -652.792783469     A.U. after   10 cycles
 E2(B2PLYP) =    -0.7527627381D+00 E(B2PLYP) =    -0.65354554620709D+03
 Optimization completed.
    -- Stationary point found.
 Normal termination of Gaussian 09 at Sun Dec 15 09:55:57 2024.

 ----------------------------------------------------------------------
 #N Geom=AllCheck Guess=TCheck SCRF=Check GenChk RB2PLYP(FC)/6-31+G(d,p
 ) Freq
 ----------------------------------------------------------------------

 Structure from the checkpoint file:  "B2PLYPDMANyang.chk"
 ----------
 [No Title]
 ----------
 Charge =  1 Multiplicity = 1

                         Standard orientation:
 ---------------------------------------------------------------------
 Center     Atomic      Atomic             Coordinates (Angstroms)
 Number     Number       Type             X           Y           Z
 ---------------------------------------------------------------------
      1          6           0        0.768908   -2.437823    0.000103
      2          6           0        2.179905   -2.388872    0.000088
      3          6           0        2.819863   -1.169985    0.000025
      4          6           0        2.087390    0.047143   -0.000027
      5          6           0        0.648140    0.019916   -0.000015
      6          6           0        0.036026   -1.271718    0.000052
      7          6           0        2.767070    1.293812   -0.000087
      8          6           0        2.067245    2.478776   -0.000133
      9          6           0        0.655102    2.461953   -0.000119
     10          6           0       -0.047318    1.273187   -0.000062
     11          7           0       -1.441325   -1.341991    0.000070
     12          7           0       -1.508878    1.271040   -0.000047
     13          6           0       -1.998069   -1.966748   -1.238993
     14          6           0       -1.998046   -1.966611    1.239213
     15          6           0       -2.075300    1.889418    1.221468
     16          6           0       -2.075322    1.889358   -1.221581
     17          1           0        0.271041   -3.400688    0.000154
     18          1           0        2.747167   -3.310865    0.000129
     19          1           0        3.902759   -1.122095    0.000014
     20          1           0        3.850948    1.294951   -0.000096
     21          1           0        2.591088    3.426543   -0.000179
     22          1           0        0.116758    3.402679   -0.000155
     23          1           0       -1.710169   -0.268415    0.000014
     24          1           0       -3.082228   -1.861185   -1.224182
     25          1           0       -1.581674   -1.454707   -2.103756
     26          1           0       -1.731584   -3.021582   -1.274883
     27          1           0       -3.082205   -1.861051    1.224410
     28          1           0       -1.581635   -1.454474    2.103911
     29          1           0       -1.731560   -3.021441    1.275214
     30          1           0       -1.644683    1.413668    2.102430
     31          1           0       -1.869255    2.963164    1.268305
     32          1           0       -3.156443    1.742357    1.222976
     33          1           0       -1.644720    1.413566   -2.102528
     34          1           0       -3.156465    1.742297   -1.223063
     35          1           0       -1.869278    2.963102   -1.268473
 ---------------------------------------------------------------------

 SCF Done:  E(RB2PLYP) =  -652.792783469     A.U. after    1 cycles
 E2(B2PLYP) =    -0.7527627378D+00 E(B2PLYP) =    -0.65354554620682D+03
 E2(B2PLYP) =    -0.7527627376D+00 E(B2PLYP) =    -0.65354554620667D+03

 The electronic state is 1-A.
 Alpha  occ. eigenvalues --  -15.09095 -15.01830 -10.81971 -10.81426 -10.81425
 Alpha  occ. eigenvalues --  -10.80368 -10.78951 -10.78205 -10.78205 -10.77871
 Alpha  occ. eigenvalues --  -10.77632 -10.76551 -10.76453 -10.76324 -10.75887
 Alpha  occ. eigenvalues --  -10.75771  -1.27503  -1.21021  -1.13108  -1.07501
 Alpha  occ. eigenvalues --   -1.02574  -0.99549  -0.98994  -0.97061  -0.95291
 Alpha  occ. eigenvalues --   -0.92691  -0.88946  -0.85924  -0.83906  -0.80588
 Alpha  occ. eigenvalues --   -0.76254  -0.74076  -0.73828  -0.71028  -0.70291
 Alpha  occ. eigenvalues --   -0.69625  -0.66884  -0.66370  -0.66326  -0.64217
 Alpha  occ. eigenvalues --   -0.63452  -0.63379  -0.61892  -0.61616  -0.60689
 Alpha  occ. eigenvalues --   -0.59994  -0.59197  -0.58610  -0.58057  -0.57243
 Alpha  occ. eigenvalues --   -0.57048  -0.54418  -0.53608  -0.51070  -0.46219
 Alpha  occ. eigenvalues --   -0.44660  -0.41355  -0.38146
 Alpha virt. eigenvalues --   -0.13258  -0.10004  -0.08892  -0.06810  -0.06666
 Alpha virt. eigenvalues --   -0.06256  -0.05567  -0.05073  -0.04651  -0.04211
 Alpha virt. eigenvalues --   -0.03864  -0.03828  -0.02644  -0.02304  -0.01973

 Mulliken charges:
               1
     1  C   -0.082759
     2  C   -0.205689
     3  C   -0.170659
     4  C   -0.200865
     5  C    0.040743
     6  C   -0.089339
     7  C   -0.204948
     8  C   -0.186242
     9  C   -0.101435
    10  C   -0.078968
    11  N   -0.366131
    12  N   -0.437927
    13  C   -0.132463
    14  C   -0.132465
    15  C   -0.127325
    16  C   -0.127323
    17  H    0.160608
    18  H    0.181155
    19  H    0.178142
    20  H    0.175710
    21  H    0.179385
    22  H    0.161078
    23  H    0.509649
    24  H    0.181822
    25  H    0.184673
    26  H    0.184290
    27  H    0.181822
    28  H    0.184672
    29  H    0.184291
    30  H    0.155580
    31  H    0.162667
    32  H    0.160001
    33  H    0.155583
    34  H    0.160001
    35  H    0.162666
 Sum of Mulliken charges =   1.00000

 Dipole moment (field-independent basis, Debye):
    X=             -4.0204    Y=             -1.8768    Z=              0.0001  Tot=              4.4369
 Quadrupole moment (field-independent basis, Debye-Ang):
   XX=            -63.7005   YY=            -64.6630   ZZ=            -92.7790
   XY=              3.5576   XZ=             -0.0004   YZ=             -0.0013

  Exact polarizability: 193.708  -0.945 210.809  -0.001  -0.005 110.315
 Approx polarizability: 226.262  -1.004 268.078  -0.001  -0.006 137.841

                      1                      2                      3
                      A                      A                      A
 Frequencies --     26.0387                84.6751               129.4666
 Red. masses --      3.5368                 2.6938                 3.3391
 Frc consts  --      0.0014                 0.0114                 0.0330
 IR Inten    --      0.0988                 0.1476                 0.3533

                      4                      5                      6
                      A                      A                      A
 Frequencies --    139.2731               167.7121               174.4798
 Red. masses --      2.3792                 2.8068                 3.1896
 Frc consts  --      0.0272                 0.0465                 0.0572
 IR Inten    --      0.2806                16.2061                 3.8609

                      7                      8                      9
                      A                      A                      A
 Frequencies --    187.9017               219.8204               229.7285
 Red. masses --      3.5288                 1.1380                 1.4281
 Frc consts  --      0.0734                 0.0324                 0.0444
 IR Inten    --      0.3802                 0.0862                 0.6044

                     10                     11                     12
                      A                      A                      A
 Frequencies --    241.7605               257.7049               261.6658
 Red. masses --      1.0852                 1.5106                 1.6333
 Frc consts  --      0.0374                 0.0591                 0.0659
 IR Inten    --      0.0253                 3.7192                 0.4319

                     13                     14                     15
                      A                      A                      A
 Frequencies --    273.7043               312.2121               319.7325
 Red. masses --      1.9989                 3.4014                 2.7539
 Frc consts  --      0.0882                 0.1953                 0.1659
 IR Inten    --      0.0755                 0.2128                 1.9703

                     16                     17                     18
                      A                      A                      A
 Frequencies --    373.6184               429.1467               447.5216
 Red. masses --      3.7676                 3.1632                 2.9214
 Frc consts  --      0.3099                 0.3432                 0.3447
 IR Inten    --     12.3059                20.7643                 0.4316

                     19                     20                     21
                      A                      A                      A
 Frequencies --    459.9091               501.4355               514.4478
 Red. masses --      3.6316                 5.4087                 3.9436
 Frc consts  --      0.4526                 0.8013                 0.6149
 IR Inten    --      0.4423                16.4758                 0.0327

                     22                     23                     24
                      A                      A                      A
 Frequencies --    528.2842               536.0969               573.0019
 Red. masses --      4.0260                 5.3457                 3.8305
 Frc consts  --      0.6620                 0.9052                 0.7410
 IR Inten    --     13.3928                 0.7419                 3.6950

                     25                     26                     27
                      A                      A                      A
 Frequencies --    606.7631               640.0245               676.6016
 Red. masses --      5.1575                 4.1617                 3.6186
 Frc consts  --      1.1187                 1.0044                 0.9760
 IR Inten    --      0.0121                 0.9650                54.6441

                     28                     29                     30
                      A                      A                      A
 Frequencies --    683.1626               772.8068               779.0284
 Red. masses --      6.7346                 4.8386                 1.2437
 Frc consts  --      1.8519                 1.7026                 0.4447
 IR Inten    --     11.2738                 1.0200                 0.3858

                     31                     32                     33
                      A                      A                      A
 Frequencies --    796.6696               810.0255               882.3506
 Red. masses --      5.3352                 1.2879                 4.1378
 Frc consts  --      1.9950                 0.4979                 1.8980
 IR Inten    --      0.2881                85.7624                36.1305

                     34                     35                     36
                      A                      A                      A
 Frequencies --    906.7399               919.5352               924.9672
 Red. masses --      1.3349                 3.8343                 1.3956
 Frc consts  --      0.6466                 1.9101                 0.7035
 IR Inten    --      0.3259                30.9194                 1.4117

                     37                     38                     39
                      A                      A                      A
 Frequencies --    965.6681               979.4179              1017.2188
 Red. masses --      1.2381                 1.2589                 3.4961
 Frc consts  --      0.6802                 0.7115                 2.1314
 IR Inten    --      0.0177                 0.1206                30.3428

                     40                     41                     42
                      A                      A                      A
 Frequencies --   1023.2384              1047.2744              1047.3129
 Red. masses --      2.1997                 1.8772                 4.0333
 Frc consts  --      1.3569                 1.2130                 2.6065
 IR Inten    --     14.2738                16.2002                15.2088

                     43                     44                     45
                      A                      A                      A
 Frequencies --   1096.3449              1113.1633              1117.8212
 Red. masses --      1.1977                 2.1653                 1.8780
 Frc consts  --      0.8482                 1.5808                 1.3826
 IR Inten    --      0.3615                 5.7000                 1.5496

                     46                     47                     48
                      A                      A                      A
 Frequencies --   1123.0621              1191.0253              1193.0362
 Red. masses --      1.2394                 2.0199                 1.3295
 Frc consts  --      0.9210                 1.6882                 1.1149
 IR Inten    --      1.8097                 5.1263                 2.1800

                     49                     50                     51
                      A                      A                      A
 Frequencies --   1196.4969              1208.2382              1212.2610
 Red. masses --      1.3928                 2.6182                 1.4500
 Frc consts  --      1.1748                 2.2520                 1.2555
 IR Inten    --      2.5220                10.1371                 0.8843

                     52                     53                     54
                      A                      A                      A
 Frequencies --   1219.6393              1236.0191              1249.5311
 Red. masses --      1.3013                 1.6039                 1.7104
 Frc consts  --      1.1405                 1.4437                 1.5734
 IR Inten    --      7.3117                20.4029                49.2985

                     55                     56                     57
                      A                      A                      A
 Frequencies --   1260.1665              1288.0904              1310.9884
 Red. masses --      2.0360                 2.2524                 2.4663
 Frc consts  --      1.9049                 2.2018                 2.4974
 IR Inten    --      3.9604                 2.0087                20.0486

                     58                     59                     60
                      A                      A                      A
 Frequencies --   1391.5607              1406.3685              1413.7818
 Red. masses --      2.4180                 4.0286                 5.2135
 Frc consts  --      2.7588                 4.6947                 6.1397
 IR Inten    --     73.1017                17.6023                 4.2090

                     61                     62                     63
                      A                      A                      A
 Frequencies --   1460.4487              1461.0267              1464.8845
 Red. masses --      1.1419                 1.3682                 1.1411
 Frc consts  --      1.4349                 1.7208                 1.4427
 IR Inten    --      0.8571                69.9616                 5.3783

                     64                     65                     66
                      A                      A                      A
 Frequencies --   1483.9262              1495.2995              1500.9060
 Red. masses --      1.5903                 1.2017                 1.0451
 Frc consts  --      2.0633                 1.5831                 1.3871
 IR Inten    --      1.1268                 0.9533                 0.0841

                     67                     68                     69
                      A                      A                      A
 Frequencies --   1504.8354              1508.8469              1514.9416
 Red. masses --      2.0753                 1.0512                 1.0449
 Frc consts  --      2.7689                 1.4101                 1.4130
 IR Inten    --      2.3791                 2.0761                 4.6000

                     70                     71                     72
                      A                      A                      A
 Frequencies --   1519.6286              1524.4516              1527.6681
 Red. masses --      1.1626                 1.0464                 1.0549
 Frc consts  --      1.5819                 1.4327                 1.4505
 IR Inten    --      7.3474                11.7520                 5.1818

                     73                     74                     75
                      A                      A                      A
 Frequencies --   1531.7274              1541.3848              1549.4777
 Red. masses --      1.0763                 1.0563                 2.7993
 Frc consts  --      1.4878                 1.4786                 3.9598
 IR Inten    --      4.2872                22.8551               104.0687

                     76                     77                     78
                      A                      A                      A
 Frequencies --   1604.6019              1630.2352              1665.6097
 Red. masses --      1.7486                 5.4798                 3.6496
 Frc consts  --      2.6526                 8.5806                 5.9655
 IR Inten    --    235.8251                16.1908                52.9661

                     79                     80                     81
                      A                      A                      A
 Frequencies --   1672.6976              1686.9256              2145.3442
 Red. masses --      1.0873                 4.7981                 1.1186
 Frc consts  --      1.7924                 8.0448                 3.0332
 IR Inten    --      3.8778                86.3075              1216.9646

                     82                     83                     84
                      A                      A                      A
 Frequencies --   3068.1347              3071.3686              3107.7602
 Red. masses --      1.0351                 1.0363                 1.0307
 Frc consts  --      5.7408                 5.7599                 5.8651
 IR Inten    --     20.7295                22.7433                 5.1984

                     85                     86                     87
                      A                      A                      A
 Frequencies --   3111.0953              3151.0143              3151.0758
 Red. masses --      1.0315                 1.1000                 1.1015
 Frc consts  --      5.8821                 6.4350                 6.4442
 IR Inten    --      5.9809                22.7383                 1.5350

                     88                     89                     90
                      A                      A                      A
 Frequencies --   3182.9864              3184.9147              3206.0723
 Red. masses --      1.1056                 1.1060                 1.1078
 Frc consts  --      6.5996                 6.6099                 6.7091
 IR Inten    --      4.7676                19.7296                 0.0327

                     91                     92                     93
                      A                      A                      A
 Frequencies --   3208.0451              3218.3686              3218.9064
 Red. masses --      1.1070                 1.1075                 1.1073
 Frc consts  --      6.7123                 6.7586                 6.7601
 IR Inten    --      6.8773                 0.7757                 2.3812

                     94                     95                     96
                      A                      A                      A
 Frequencies --   3227.4710              3227.9558              3231.8965
 Red. masses --      1.0888                 1.0896                 1.0918
 Frc consts  --      6.6824                 6.6891                 6.7193
 IR Inten    --      0.7667                 3.6252                 0.2700

                     97                     98                     99
                      A                      A                      A
 Frequencies --   3234.0049              3251.1148              3254.2910
 Red. masses --      1.0913                 1.0974                 1.0970
 Frc consts  --      6.7246                 6.8342                 6.8452
 IR Inten    --      4.6255                 2.0622                 1.0313

 - Thermochemistry -
 -------------------
 Temperature   298.150 Kelvin.  Pressure   1.00000 Atm.
 Atom     1 has atomic number  6 and mass  12.00000

 Molecular mass:   215.15482 amu.
 Principal axes and moments of inertia in atomic units:
                           1         2         3
     Eigenvalues --  2848.947442992.527135105.49655
           X            0.99999   0.00404   0.00001
           Y           -0.00404   0.99999   0.00005
           Z           -0.00001  -0.00005   1.00000
 This molecule is an asymmetric top.
 Rotational symmetry number  1.
 Warning -- assumption of classical behavior for rotation
           may cause significant error
 Rotational temperatures (Kelvin)      0.03040     0.02894     0.01696
 Rotational constants (GHZ):           0.63348     0.60308     0.35349
 Zero-point vibrational energy     809854.4 (Joules/Mol)
                                  193.55985 (Kcal/Mol)
 Warning -- explicit consideration of  25 degrees of freedom as
           vibrations may cause significant error
 Vibrational temperatures:     37.46   121.83   186.27   200.38   241.30
          (Kelvin)            251.04   270.35   316.27   330.53   347.84
                              370.78   376.48   393.80   449.20   460.02
                              537.55   617.45   643.88   661.71   721.45
                              740.17   760.08   771.32   824.42   873.00
                              920.85   973.48   982.92  1111.90  1120.85
                             1146.23  1165.44  1269.50  1304.59  1323.00
                             1330.82  1389.38  1409.16  1463.55  1472.21
                             1506.79  1506.85  1577.39  1601.59  1608.29
                             1615.83  1713.62  1716.51  1721.49  1738.38
                             1744.17  1754.79  1778.35  1797.79  1813.10
                             1853.27  1886.22  2002.14  2023.45  2034.11
                             2101.26  2102.09  2107.64  2135.04  2151.40
                             2159.47  2165.12  2170.89  2179.66  2186.40
                             2193.34  2197.97  2203.81  2217.71  2229.35
                             2308.66  2345.54  2396.44  2406.64  2427.11
                             3086.67  4414.36  4419.01  4471.37  4476.17
                             4533.60  4533.69  4579.60  4582.38  4612.82
                             4615.66  4630.51  4631.28  4643.61  4644.30
                             4649.97  4653.01  4677.62  4682.19

 Zero-point correction=                           0.308457 (Hartree/Particle)
 Thermal correction to Energy=                    0.323627
 Thermal correction to Enthalpy=                  0.324572
 Thermal correction to Gibbs Free Energy=         0.267150
 Sum of electronic and zero-point Energies=           -653.237089
 Sum of electronic and thermal Energies=              -653.221919
 Sum of electronic and thermal Enthalpies=            -653.220975
 Sum of electronic and thermal Free Energies=         -653.278396

                     E (Thermal)             CV                S
                      KCal/Mol        Cal/Mol-Kelvin    Cal/Mol-Kelvin
 Total                  203.079             60.070            120.854
 Electronic               0.000              0.000              0.000
 Translational            0.889              2.981             42.002
 Rotational               0.889              2.981             32.143
 Vibrational            201.302             54.108             46.709
 Vibration     1          0.593              1.985              6.110
 Vibration     2          0.601              1.960              3.779
 Vibration     3          0.612              1.924              2.954
 Vibration     4          0.615              1.914              2.814
 Vibration     5          0.624              1.882              2.461
 Vibration     6          0.627              1.874              2.387
 Vibration     7          0.633              1.856              2.248
 Vibration     8          0.647              1.811              1.961
 Vibration     9          0.652              1.796              1.881
 Vibration    10          0.658              1.776              1.790
 Vibration    11          0.667              1.750              1.677
 Vibration    12          0.669              1.743              1.651
 Vibration    13          0.676              1.722              1.573
 Vibration    14          0.701              1.650              1.351
 Vibration    15          0.706              1.636              1.311
 Vibration    16          0.745              1.526              1.065
 Vibration    17          0.790              1.407              0.861
 Vibration    18          0.807              1.366              0.803
 Vibration    19          0.818              1.339              0.766
 Vibration    20          0.857              1.247              0.655
 Vibration    21          0.869              1.218              0.623
 Vibration    22          0.883              1.187              0.591
 Vibration    23          0.891              1.170              0.574
 Vibration    24          0.929              1.090              0.498
 Vibration    25          0.965              1.017              0.438

 Optimization completed.
    -- Stationary point found.
 Normal termination of Gaussian 09 at Sun Dec 15 12:03:51 2024.
