 Gaussian 09, Revision E.01,
 Gaussian 09:  ES64L-G09RevE.01 30-Nov-2015

 -----------------------------
 # opt freq B2PLYP/6-31+g(d,p)
 -----------------------------

 ----------
 [No Title]
 ----------
 Symbolic Z-matrix:
 Charge =  0 Multiplicity = 1

 SCF Done:  E(RB2PLYP) =  -652.384897447     A.U. after   15 cycles
 E2(B2PLYP) =    -0.7543132126D+00 E(B2PLYP) =    -0.65313921065970D+03
 SCF Done:  E(RB2PLYP) =  -652.383083989     A.U. after   14 cycles
 E2(B2PLYP) =    -0.7542757267D+00 E(B2PLYP) =    -0.65313735971545D+03
 SCF Done:  E(RB2PLYP) =  -652.384649030     A.U. after   14 cycles
 E2(B2PLYP) =    -0.7551146081D+00 E(B2PLYP) =    -0.65313976363853D+03
 SCF Done:  E(RB2PLYP) =  -652.384981072     A.U. after   13 cycles
 E2(B2PLYP) =    -0.7548239861D+00 E(B2PLYP) =    -0.65313980505788D+03
 SCF Done:  E(RB2PLYP) =  -652.384955867     A.U. after   11 cycles
 E2(B2PLYP) =    -0.7548736384D+00 E(B2PLYP) =    -0.65313982950585D+03
 SCF Done:  E(RB2PLYP) =  -652.384967260     A.U. after   12 cycles
 E2(B2PLYP) =    -0.7548708363D+00 E(B2PLYP) =    -0.65313983809585D+03
 SCF Done:  E(RB2PLYP) =  -652.384984768     A.U. after   11 cycles
 E2(B2PLYP) =    -0.7548555343D+00 E(B2PLYP) =    -0.65313984030212D+03
 SCF Done:  E(RB2PLYP) =  -652.385010626     A.U. after   11 cycles
 E2(B2PLYP) =    -0.7548302708D+00 E(B2PLYP) =    -0.65313984089679D+03
 SCF Done:  E(RB2PLYP) =  -652.385018540     A.U. after   10 cycles
 E2(B2PLYP) =    -0.7548226236D+00 E(B2PLYP) =    -0.65313984116414D+03
 SCF Done:  E(RB2PLYP) =  -652.385022629     A.U. after    8 cycles
 E2(B2PLYP) =    -0.7548184591D+00 E(B2PLYP) =    -0.65313984108840D+03
 SCF Done:  E(RB2PLYP) =  -652.385024589     A.U. after    8 cycles
 E2(B2PLYP) =    -0.7548163614D+00 E(B2PLYP) =    -0.65313984095013D+03
 Optimization completed.
    -- Stationary point found.
 Normal termination of Gaussian 09 at Sun Dec 15 15:56:45 2024.

 ----------------------------------------------------------------------
 #N Geom=AllCheck Guess=TCheck SCRF=Check GenChk RB2PLYP(FC)/6-31+G(d,p
 ) Freq
 ----------------------------------------------------------------------

 Structure from the checkpoint file:  "B2PLYPDMAN.chk"
 ----------
 [No Title]
 ----------
 Charge =  0 Multiplicity = 1

                         Standard orientation:
 ---------------------------------------------------------------------
 Center     Atomic      Atomic             Coordinates (Angstroms)
 Number     Number       Type             X           Y           Z
 ---------------------------------------------------------------------
      1          6           0        0.692166    2.435401    0.229301
      2          6           0        2.095126    2.387716    0.367011
      3          6           0        2.758869    1.195563    0.206943
      4          6           0        2.032852   -0.008991    0.000040
      5          6           0        0.593145   -0.002592    0.000077
      6          6           0       -0.064378    1.290407   -0.004821
      7          6           0        2.748118   -1.219939   -0.206944
      8          6           0        2.073815   -2.406135   -0.367105
      9          6           0        0.670490   -2.441355   -0.229385
     10          6           0       -0.075850   -1.289707    0.004890
     11          7           0       -1.452664    1.388728   -0.255301
     12          7           0       -1.464952   -1.375732    0.255386
     13          6           0       -1.881136    0.933282   -1.577968
     14          6           0       -2.112967    2.629000    0.114296
     15          6           0       -2.136282   -2.609954   -0.114600
     16          6           0       -1.889287   -0.917025    1.578260
     17          1           0        0.207761    3.402143    0.242517
     18          1           0        2.644150    3.306259    0.542204
     19          1           0        3.842085    1.151209    0.237416
     20          1           0        3.831684   -1.185202   -0.237462
     21          1           0        2.614655   -3.329503   -0.542396
     22          1           0        0.177529   -3.403760   -0.242689
     23          1           0       -1.342067    0.035180   -1.863639
     24          1           0       -2.948300    0.699796   -1.554729
     25          1           0       -1.705461    1.709655   -2.340333
     26          1           0       -1.867736    2.894033    1.143696
     27          1           0       -1.855821    3.479258   -0.539684
     28          1           0       -3.192081    2.474679    0.045559
     29          1           0       -1.893492   -2.876797   -1.144110
     30          1           0       -1.886658   -3.462691    0.539067
     31          1           0       -3.213977   -2.446073   -0.045732
     32          1           0       -1.342173   -0.023931    1.864316
     33          1           0       -2.954313   -0.673969    1.555153
     34          1           0       -1.720563   -1.695277    2.340280
 ---------------------------------------------------------------------

 SCF Done:  E(RB2PLYP) =  -652.385024589     A.U. after    1 cycles
 E2(B2PLYP) =    -0.7548163623D+00 E(B2PLYP) =    -0.65313984095100D+03
 E2(B2PLYP) =    -0.7548163623D+00 E(B2PLYP) =    -0.65313984095098D+03

 The electronic state is 1-A.
 Alpha  occ. eigenvalues --  -14.85207 -14.85207 -10.66834 -10.66834 -10.64537
 Alpha  occ. eigenvalues --  -10.64537 -10.63884 -10.63857 -10.63857 -10.63758
 Alpha  occ. eigenvalues --  -10.62816 -10.62816 -10.62116 -10.62113 -10.62069
 Alpha  occ. eigenvalues --  -10.62068  -1.07506  -1.05743  -0.98241  -0.93103
 Alpha  occ. eigenvalues --   -0.87612  -0.85290  -0.82910  -0.81236  -0.81036
 Alpha  occ. eigenvalues --   -0.75096  -0.74773  -0.70405  -0.68823  -0.64220
 Alpha  occ. eigenvalues --   -0.59624  -0.58762  -0.57735  -0.55105  -0.54256
 Alpha  occ. eigenvalues --   -0.53223  -0.52539  -0.52153  -0.51102  -0.48853
 Alpha  occ. eigenvalues --   -0.47738  -0.47265  -0.45919  -0.45673  -0.45126
 Alpha  occ. eigenvalues --   -0.44319  -0.43858  -0.43248  -0.43064  -0.43008
 Alpha  occ. eigenvalues --   -0.40152  -0.39668  -0.37660  -0.33502  -0.30926
 Alpha  occ. eigenvalues --   -0.27439  -0.24894  -0.21982
 Alpha virt. eigenvalues --    0.01310   0.03115   0.03420   0.03851   0.04306
 Alpha virt. eigenvalues --    0.04961   0.05541   0.05664   0.06526   0.07295
 Alpha virt. eigenvalues --    0.07756   0.07925   0.07933   0.08288   0.08932

 Mulliken charges:
               1
     1  C   -0.282850
     2  C   -0.229926
     3  C   -0.336367
     4  C    0.171289
     5  C    0.055347
     6  C   -0.075941
     7  C   -0.336393
     8  C   -0.229777
     9  C   -0.282656
    10  C   -0.076026
    11  N   -0.029413
    12  N   -0.029410
    13  C   -0.164957
    14  C   -0.206041
    15  C   -0.206040
    16  C   -0.164944
    17  H    0.134751
    18  H    0.141122
    19  H    0.139631
    20  H    0.139631
    21  H    0.141122
    22  H    0.134751
    23  H    0.147889
    24  H    0.126584
    25  H    0.119930
    26  H    0.142361
    27  H    0.126581
    28  H    0.133192
    29  H    0.142363
    30  H    0.126573
    31  H    0.133194
    32  H    0.147900
    33  H    0.126599
    34  H    0.119932
 Sum of Mulliken charges =  -0.00000

 Dipole moment (field-independent basis, Debye):
    X=             -1.4405    Y=              0.0061    Z=             -0.0001  Tot=              1.4405
 Quadrupole moment (field-independent basis, Debye-Ang):
   XX=            -90.9133   YY=            -89.8642   ZZ=           -102.1844
   XY=              0.0049   XZ=              0.0074   YZ=              1.7311

  Exact polarizability: 218.124   0.028 223.969   0.030   6.636 123.599
 Approx polarizability: 251.597   0.086 270.645   0.065  14.815 152.867

                      1                      2                      3
                      A                      A                      A
 Frequencies --     52.2094               100.2304               114.8122
 Red. masses --      3.7783                 2.4584                 1.8866
 Frc consts  --      0.0061                 0.0146                 0.0147
 IR Inten    --      0.4431                 0.3404                 3.8847

                      4                      5                      6
                      A                      A                      A
 Frequencies --    126.6994               127.6190               152.1135
 Red. masses --      3.1902                 2.9311                 3.0085
 Frc consts  --      0.0302                 0.0281                 0.0410
 IR Inten    --      1.0010                 0.0566                 1.0548

                      7                      8                      9
                      A                      A                      A
 Frequencies --    178.3665               211.8907               242.6568
 Red. masses --      1.5736                 2.6030                 1.4561
 Frc consts  --      0.0295                 0.0689                 0.0505
 IR Inten    --      0.6908                 0.0026                 0.7022

                     10                     11                     12
                      A                      A                      A
 Frequencies --    268.8776               304.7755               317.6365
 Red. masses --      1.8987                 1.9775                 1.4400
 Frc consts  --      0.0809                 0.1082                 0.0856
 IR Inten    --      4.3721                 4.2722                 0.8828

                     13                     14                     15
                      A                      A                      A
 Frequencies --    319.0840               330.3567               356.4919
 Red. masses --      1.5535                 2.0644                 2.8138
 Frc consts  --      0.0932                 0.1327                 0.2107
 IR Inten    --      1.5406                 0.2078                 1.7050

                     16                     17                     18
                      A                      A                      A
 Frequencies --    365.7310               390.3354               447.1167
 Red. masses --      3.5675                 2.7822                 2.9519
 Frc consts  --      0.2812                 0.2498                 0.3477
 IR Inten    --      4.6886                 3.1786                 0.7891

                     19                     20                     21
                      A                      A                      A
 Frequencies --    467.6579               478.6034               520.0174
 Red. masses --      3.7498                 4.6425                 4.1111
 Frc consts  --      0.4832                 0.6265                 0.6550
 IR Inten    --      2.3565                 5.2273                 2.0846

                     22                     23                     24
                      A                      A                      A
 Frequencies --    534.9760               541.1870               549.6114
 Red. masses --      4.1843                 4.1041                 5.6218
 Frc consts  --      0.7056                 0.7082                 1.0005
 IR Inten    --      5.2776                 0.0144                 2.7394

                     25                     26                     27
                      A                      A                      A
 Frequencies --    618.0752               635.9201               653.5732
 Red. masses --      5.3631                 4.0364                 4.1815
 Frc consts  --      1.2071                 0.9617                 1.0524
 IR Inten    --      4.8495                 1.7615                 6.9429

                     28                     29                     30
                      A                      A                      A
 Frequencies --    685.9181               757.8576               773.6422
 Red. masses --      6.7838                 1.2726                 5.2774
 Frc consts  --      1.8805                 0.4306                 1.8610
 IR Inten    --      4.2345                 0.4724                 0.3647

                     31                     32                     33
                      A                      A                      A
 Frequencies --    787.4014               794.3482               858.4482
 Red. masses --      1.2824                 5.3080                 1.3756
 Frc consts  --      0.4685                 1.9734                 0.5973
 IR Inten    --    115.6753                 2.7180                 0.5874

                     34                     35                     36
                      A                      A                      A
 Frequencies --    872.2325               906.0771               939.1358
 Red. masses --      1.4347                 4.4464                 1.2186
 Frc consts  --      0.6431                 2.1507                 0.6332
 IR Inten    --      2.0091                 1.6909                 0.5621

                     37                     38                     39
                      A                      A                      A
 Frequencies --    950.5764               956.2481              1053.5627
 Red. masses --      1.2430                 3.6999                 2.7043
 Frc consts  --      0.6618                 1.9933                 1.7686
 IR Inten    --      0.1235                36.9020                82.6940

                     40                     41                     42
                      A                      A                      A
 Frequencies --   1059.3823              1087.0094              1087.0758
 Red. masses --      4.3800                 1.4708                 1.4633
 Frc consts  --      2.8962                 1.0240                 1.0189
 IR Inten    --     27.6712                17.4869                 9.3895

                     43                     44                     45
                      A                      A                      A
 Frequencies --   1124.4235              1124.9409              1134.7884
 Red. masses --      1.3350                 1.5172                 1.5740
 Frc consts  --      0.9945                 1.1312                 1.1942
 IR Inten    --     12.2919                 5.2020                 0.1474

                     46                     47                     48
                      A                      A                      A
 Frequencies --   1142.6992              1175.5027              1179.2485
 Red. masses --      1.6837                 1.4568                 1.4385
 Frc consts  --      1.2953                 1.1860                 1.1786
 IR Inten    --      3.8532                 1.7743                47.6067

                     49                     50                     51
                      A                      A                      A
 Frequencies --   1192.2314              1199.5787              1226.8870
 Red. masses --      1.2935                 1.2804                 2.5539
 Frc consts  --      1.0833                 1.0856                 2.2649
 IR Inten    --      1.1853                 3.5883                29.9221

                     52                     53                     54
                      A                      A                      A
 Frequencies --   1235.2129              1239.3346              1256.5575
 Red. masses --      1.7601                 1.9571                 2.9802
 Frc consts  --      1.5822                 1.7711                 2.7724
 IR Inten    --      5.6011                 8.1553                15.6121

                     55                     56                     57
                      A                      A                      A
 Frequencies --   1262.1358              1357.2846              1365.7556
 Red. masses --      2.4031                 3.2165                 2.0498
 Frc consts  --      2.2554                 3.4912                 2.2527
 IR Inten    --     17.1877                22.4005                48.2388

                     58                     59                     60
                      A                      A                      A
 Frequencies --   1391.8169              1396.4607              1423.5570
 Red. masses --      6.9430                 3.9565                 3.4191
 Frc consts  --      7.9243                 4.5459                 4.0823
 IR Inten    --     25.8309                13.3062                67.4433

                     61                     62                     63
                      A                      A                      A
 Frequencies --   1462.6921              1463.3252              1472.4745
 Red. masses --      1.1631                 1.1621                 1.7869
 Frc consts  --      1.4661                 1.4661                 2.2827
 IR Inten    --      0.0418                 0.8869                26.6218

                     64                     65                     66
                      A                      A                      A
 Frequencies --   1483.6487              1492.2463              1498.4343
 Red. masses --      1.4675                 1.2305                 1.0702
 Frc consts  --      1.9032                 1.6144                 1.4158
 IR Inten    --      5.2799                 0.2433                 0.4109

                     67                     68                     69
                      A                      A                      A
 Frequencies --   1500.9521              1505.6438              1514.5400
 Red. masses --      1.1516                 1.2652                 1.1054
 Frc consts  --      1.5285                 1.6898                 1.4939
 IR Inten    --      2.3217                13.9436                17.1161

                     70                     71                     72
                      A                      A                      A
 Frequencies --   1515.5471              1522.7409              1523.2857
 Red. masses --      1.0522                 1.0570                 1.1751
 Frc consts  --      1.4240                 1.4440                 1.6066
 IR Inten    --     27.6411                 3.1489                13.0483

                     73                     74                     75
                      A                      A                      A
 Frequencies --   1543.7984              1546.7903              1561.9127
 Red. masses --      1.0771                 1.0839                 3.6247
 Frc consts  --      1.5125                 1.5279                 5.2100
 IR Inten    --      8.2578                20.8574                24.5086

                     76                     77                     78
                      A                      A                      A
 Frequencies --   1626.6465              1646.1685              1661.2697
 Red. masses --      5.4796                 5.2338                 5.8472
 Frc consts  --      8.5426                 8.3564                 9.5078
 IR Inten    --    181.7368                 0.1207                 8.8461

                     79                     80                     81
                      A                      A                      A
 Frequencies --   2977.8099              2978.1987              2990.3353
 Red. masses --      1.0577                 1.0576                 1.0582
 Frc consts  --      5.5259                 5.5270                 5.5754
 IR Inten    --    162.4520                14.1798               266.3023

                     82                     83                     84
                      A                      A                      A
 Frequencies --   2991.9589              3106.7286              3106.8377
 Red. masses --      1.0579                 1.0745                 1.0748
 Frc consts  --      5.5799                 6.1104                 6.1126
 IR Inten    --     40.6954                21.7677                40.4369

                     85                     86                     87
                      A                      A                      A
 Frequencies --   3113.8518              3113.9332              3161.3398
 Red. masses --      1.0825                 1.0823                 1.1034
 Frc consts  --      6.1842                 6.1834                 6.4972
 IR Inten    --     17.6918                67.6451                18.7456

                     88                     89                     90
                      A                      A                      A
 Frequencies --   3161.3597              3207.5694              3209.6697
 Red. masses --      1.1033                 1.0863                 1.0862
 Frc consts  --      6.4969                 6.5852                 6.5929
 IR Inten    --     22.7592                 3.9835                 0.0226

                     91                     92                     93
                      A                      A                      A
 Frequencies --   3213.4372              3213.7130              3225.6004
 Red. masses --      1.0961                 1.0959                 1.0956
 Frc consts  --      6.6687                 6.6684                 6.7160
 IR Inten    --      6.7996                12.6874                12.7759

                     94                     95                     96
                      A                      A                      A
 Frequencies --   3227.7364              3253.9510              3254.0175
 Red. masses --      1.0950                 1.0914                 1.0913
 Frc consts  --      6.7216                 6.8085                 6.8080
 IR Inten    --     45.9555                18.6567                 2.8261

 - Thermochemistry -
 -------------------
 Temperature   298.150 Kelvin.  Pressure   1.00000 Atm.
 Atom     1 has atomic number  6 and mass  12.00000

 Molecular mass:   214.14700 amu.
 Principal axes and moments of inertia in atomic units:
                           1         2         3
     Eigenvalues --  2846.222352870.727305042.71704
           X            1.00000   0.00172  -0.00001
           Y           -0.00172   1.00000  -0.00216
           Z            0.00001   0.00216   1.00000
 This molecule is an asymmetric top.
 Rotational symmetry number  1.
 Warning -- assumption of classical behavior for rotation
           may cause significant error
 Rotational temperatures (Kelvin)      0.03043     0.03017     0.01718
 Rotational constants (GHZ):           0.63408     0.62867     0.35789
 Zero-point vibrational energy     774307.6 (Joules/Mol)
                                  185.06396 (Kcal/Mol)
 Warning -- explicit consideration of  25 degrees of freedom as
           vibrations may cause significant error
 Vibrational temperatures:     75.12   144.21   165.19   182.29   183.61
          (Kelvin)            218.86   256.63   304.86   349.13   386.85
                              438.50   457.01   459.09   475.31   512.91
                              526.20   561.60   643.30   672.85   688.60
                              748.19   769.71   778.65   790.77   889.27
                              914.95   940.34   986.88  1090.39  1113.10
                             1132.89  1142.89  1235.11  1254.95  1303.64
                             1351.21  1367.67  1375.83  1515.84  1524.21
                             1563.96  1564.06  1617.79  1618.54  1632.71
                             1644.09  1691.28  1696.67  1715.35  1725.92
                             1765.21  1777.19  1783.12  1807.90  1815.93
                             1952.83  1965.02  2002.51  2009.19  2048.18
                             2104.48  2105.40  2118.56  2134.64  2147.01
                             2155.91  2159.53  2166.28  2179.08  2180.53
                             2190.88  2191.67  2221.18  2225.48  2247.24
                             2340.38  2368.47  2390.19  4284.40  4284.96
                             4302.42  4304.76  4469.88  4470.04  4480.13
                             4480.25  4548.46  4548.49  4614.97  4617.99
                             4623.41  4623.81  4640.91  4643.99  4681.70
                             4681.80

 Zero-point correction=                           0.294918 (Hartree/Particle)
 Thermal correction to Energy=                    0.309939
 Thermal correction to Enthalpy=                  0.310883
 Thermal correction to Gibbs Free Energy=         0.254227
 Sum of electronic and zero-point Energies=           -652.844923
 Sum of electronic and thermal Energies=              -652.829902
 Sum of electronic and thermal Enthalpies=            -652.828958
 Sum of electronic and thermal Free Energies=         -652.885614

                     E (Thermal)             CV                S
                      KCal/Mol        Cal/Mol-Kelvin    Cal/Mol-Kelvin
 Total                  194.490             59.743            119.243
 Electronic               0.000              0.000              0.000
 Translational            0.889              2.981             41.988
 Rotational               0.889              2.981             32.088
 Vibrational            192.712             53.782             45.167
 Vibration     1          0.596              1.977              4.732
 Vibration     2          0.604              1.949              3.450
 Vibration     3          0.608              1.937              3.186
 Vibration     4          0.611              1.926              2.996
 Vibration     5          0.611              1.926              2.982
 Vibration     6          0.619              1.900              2.646
 Vibration     7          0.629              1.869              2.345
 Vibration     8          0.643              1.823              2.027
 Vibration     9          0.659              1.775              1.783
 Vibration    10          0.673              1.730              1.603
 Vibration    11          0.696              1.665              1.391
 Vibration    12          0.704              1.640              1.322
 Vibration    13          0.705              1.637              1.315
 Vibration    14          0.713              1.615              1.258
 Vibration    15          0.732              1.562              1.137
 Vibration    16          0.739              1.543              1.098
 Vibration    17          0.758              1.491              0.999
 Vibration    18          0.806              1.367              0.805
 Vibration    19          0.825              1.322              0.744
 Vibration    20          0.835              1.298              0.714
 Vibration    21          0.875              1.206              0.610
 Vibration    22          0.890              1.173              0.576
 Vibration    23          0.896              1.159              0.563
 Vibration    24          0.905              1.141              0.545
 Vibration    25          0.978              0.994              0.420

 Optimization completed.
    -- Stationary point found.
 Normal termination of Gaussian 09 at Sun Dec 15 18:25:57 2024.
