 Gaussian 09, Revision E.01,
 Gaussian 09:  ES64L-G09RevE.01 30-Nov-2015

 ----------------------------
 # opt freq b3lyp/6-31+g(d,p)
 ----------------------------

 ----------
 [No Title]
 ----------
 Symbolic Z-matrix:
 Charge =  0 Multiplicity = 1

 SCF Done:  E(RB3LYP) =  -653.747538564     A.U. after   16 cycles
 SCF Done:  E(RB3LYP) =  -653.817402637     A.U. after   13 cycles
 SCF Done:  E(RB3LYP) =  -653.824050476     A.U. after   15 cycles
 SCF Done:  E(RB3LYP) =  -653.831143333     A.U. after   16 cycles
 SCF Done:  E(RB3LYP) =  -653.832387982     A.U. after   15 cycles
 SCF Done:  E(RB3LYP) =  -653.844785973     A.U. after   15 cycles
 SCF Done:  E(RB3LYP) =  -653.847871526     A.U. after   12 cycles
 SCF Done:  E(RB3LYP) =  -653.850354312     A.U. after   15 cycles
 SCF Done:  E(RB3LYP) =  -653.852018689     A.U. after   15 cycles
 SCF Done:  E(RB3LYP) =  -653.852447807     A.U. after   12 cycles
 SCF Done:  E(RB3LYP) =  -653.852718176     A.U. after   13 cycles
 SCF Done:  E(RB3LYP) =  -653.852756563     A.U. after   12 cycles
 SCF Done:  E(RB3LYP) =  -653.852831949     A.U. after   12 cycles
 SCF Done:  E(RB3LYP) =  -653.852839097     A.U. after   12 cycles
 SCF Done:  E(RB3LYP) =  -653.852815027     A.U. after   10 cycles
 SCF Done:  E(RB3LYP) =  -653.852815421     A.U. after   10 cycles
 SCF Done:  E(RB3LYP) =  -653.852842758     A.U. after   11 cycles
 SCF Done:  E(RB3LYP) =  -653.852842904     A.U. after    9 cycles
 Optimization completed.
    -- Stationary point found.
 Normal termination of Gaussian 09 at Thu Jun 20 12:17:23 2024.

 ----------------------------------------------------------------------
 #N Geom=AllCheck Guess=TCheck SCRF=Check GenChk RB3LYP/6-31+G(d,p) Fre
 q
 ----------------------------------------------------------------------

 Structure from the checkpoint file:  "b3lypDMANgd3.chk"
 ----------
 [No Title]
 ----------
 Charge =  0 Multiplicity = 1

                         Standard orientation:
 ---------------------------------------------------------------------
 Center     Atomic      Atomic             Coordinates (Angstroms)
 Number     Number       Type             X           Y           Z
 ---------------------------------------------------------------------
      1          6           0       -0.691187    2.440780   -0.218064
      2          6           0       -2.094208    2.398140   -0.354017
      3          6           0       -2.759775    1.207599   -0.198588
      4          6           0       -2.037085   -0.000992   -0.000005
      5          6           0       -0.595014   -0.000284   -0.000006
      6          6           0        0.065454    1.294022    0.005922
      7          6           0       -2.758589   -1.210290    0.198585
      8          6           0       -2.091853   -2.400176    0.354025
      9          6           0       -0.688791   -2.441440    0.218075
     10          6           0        0.066724   -1.293943   -0.005928
     11          7           0        1.455178    1.400482    0.253940
     12          7           0        1.456551   -1.399050   -0.253944
     13          6           0        1.905975    0.944848    1.569895
     14          6           0        2.124136    2.628499   -0.142940
     15          6           0        2.126697   -2.626407    0.142968
     16          6           0        1.906896   -0.943039   -1.569924
     17          1           0       -0.203896    3.408106   -0.229935
     18          1           0       -2.641851    3.321127   -0.522904
     19          1           0       -3.844848    1.165459   -0.228793
     20          1           0       -3.843701   -1.169215    0.228792
     21          1           0       -2.638590   -3.323698    0.522922
     22          1           0       -0.200552   -3.408290    0.229956
     23          1           0        1.371828    0.045453    1.868037
     24          1           0        2.975245    0.710513    1.532567
     25          1           0        1.743956    1.721752    2.338731
     26          1           0        1.865358    2.887436   -1.173182
     27          1           0        1.889840    3.493190    0.505462
     28          1           0        3.205790    2.465191   -0.092246
     29          1           0        1.868179   -2.885561    1.173220
     30          1           0        1.893228   -3.491343   -0.505406
     31          1           0        3.208193   -2.462060    0.092260
     32          1           0        1.371840   -0.044207   -1.868130
     33          1           0        2.975928   -0.707621   -1.532604
     34          1           0        1.745667   -1.720156   -2.338711
 ---------------------------------------------------------------------

 SCF Done:  E(RB3LYP) =  -653.852842904     A.U. after    2 cycles

 The electronic state is 1-A.
 Alpha  occ. eigenvalues --  -14.34352 -14.34352 -10.22910 -10.22910 -10.21238
 Alpha  occ. eigenvalues --  -10.21238 -10.20616 -10.20615 -10.20205 -10.19929
 Alpha  occ. eigenvalues --  -10.18997 -10.18997 -10.18447 -10.18447 -10.18400
 Alpha  occ. eigenvalues --  -10.18399  -0.94651  -0.93162  -0.85942  -0.81315
 Alpha  occ. eigenvalues --   -0.76438  -0.74242  -0.72334  -0.71142  -0.70902
 Alpha  occ. eigenvalues --   -0.65364  -0.65344  -0.61119  -0.59876  -0.55881
 Alpha  occ. eigenvalues --   -0.51874  -0.51180  -0.50129  -0.47962  -0.47025
 Alpha  occ. eigenvalues --   -0.46416  -0.45841  -0.45333  -0.44237  -0.42240
 Alpha  occ. eigenvalues --   -0.41092  -0.40702  -0.39695  -0.39533  -0.39129
 Alpha  occ. eigenvalues --   -0.38187  -0.37983  -0.37324  -0.37183  -0.36958
 Alpha  occ. eigenvalues --   -0.34314  -0.33701  -0.32633  -0.28912  -0.25863
 Alpha  occ. eigenvalues --   -0.24295  -0.20285  -0.18941
 Alpha virt. eigenvalues --   -0.03749  -0.01671  -0.00126   0.00886   0.01285
 Alpha virt. eigenvalues --    0.01826   0.02737   0.02850   0.03195   0.03550
 Alpha virt. eigenvalues --    0.04793   0.04948   0.04986   0.05404   0.05813

 Mulliken charges:
               1
     1  C   -0.294241
     2  C   -0.360429
     3  C   -0.059992
     4  C   -0.160774
     5  C   -0.022779
     6  C    0.037780
     7  C   -0.059981
     8  C   -0.360426
     9  C   -0.294162
    10  C    0.037741
    11  N   -0.019161
    12  N   -0.019155
    13  C   -0.187967
    14  C   -0.226982
    15  C   -0.226981
    16  C   -0.187966
    17  H    0.113884
    18  H    0.122335
    19  H    0.119918
    20  H    0.119918
    21  H    0.122335
    22  H    0.113884
    23  H    0.159889
    24  H    0.132425
    25  H    0.127765
    26  H    0.150463
    27  H    0.135724
    28  H    0.140332
    29  H    0.150463
    30  H    0.135723
    31  H    0.140332
    32  H    0.159889
    33  H    0.132429
    34  H    0.127765
 Sum of Mulliken charges =  -0.00000

 Dipole moment (field-independent basis, Debye):
    X=              1.6579    Y=              0.0008    Z=             -0.0000  Tot=              1.6579
 Quadrupole moment (field-independent basis, Debye-Ang):
   XX=            -91.1511   YY=            -90.7089   ZZ=           -101.7381
   XY=             -0.0002   XZ=              0.0008   YZ=             -1.7587

  Exact polarizability: 222.931  -0.003 227.847   0.003  -6.350 124.534
 Approx polarizability: 350.112  -0.008 366.825   0.010 -20.700 187.879

                      1                      2                      3
                      A                      A                      A
 Frequencies --     50.8856               100.2241               115.3027
 Red. masses --      3.7923                 2.4937                 2.1655
 Frc consts  --      0.0058                 0.0148                 0.0170
 IR Inten    --      0.5682                 0.2634                 3.8720

                      4                      5                      6
                      A                      A                      A
 Frequencies --    124.8048               127.8786               155.9880
 Red. masses --      2.5186                 3.1658                 2.8174
 Frc consts  --      0.0231                 0.0305                 0.0404
 IR Inten    --      0.1456                 1.0520                 0.8731

                      7                      8                      9
                      A                      A                      A
 Frequencies --    178.5989               212.9562               238.1893
 Red. masses --      1.6209                 2.4514                 1.4728
 Frc consts  --      0.0305                 0.0655                 0.0492
 IR Inten    --      0.6759                 0.0021                 0.5822

                     10                     11                     12
                      A                      A                      A
 Frequencies --    266.4645               303.7855               312.4272
 Red. masses --      1.8608                 1.5493                 1.3944
 Frc consts  --      0.0778                 0.0842                 0.0802
 IR Inten    --      4.3668                 3.1827                 0.8310

                     13                     14                     15
                      A                      A                      A
 Frequencies --    317.1002               328.8322               353.7373
 Red. masses --      2.0138                 2.1546                 2.7853
 Frc consts  --      0.1193                 0.1373                 0.2053
 IR Inten    --      3.0270                 0.2600                 1.5170

                     16                     17                     18
                      A                      A                      A
 Frequencies --    369.7501               387.5235               445.0185
 Red. masses --      3.5987                 2.7583                 2.9843
 Frc consts  --      0.2899                 0.2441                 0.3482
 IR Inten    --      4.2719                 2.8099                 1.3010

                     19                     20                     21
                      A                      A                      A
 Frequencies --    478.5759               485.8573               535.4071
 Red. masses --      4.6236                 3.4993                 4.0602
 Frc consts  --      0.6239                 0.4867                 0.6858
 IR Inten    --      5.4939                 2.4715                 5.6946

                     22                     23                     24
                      A                      A                      A
 Frequencies --    536.1884               539.9117               550.9580
 Red. masses --      3.7598                 4.0523                 5.7303
 Frc consts  --      0.6369                 0.6960                 1.0249
 IR Inten    --      1.6397                 0.0010                 2.0779

                     25                     26                     27
                      A                      A                      A
 Frequencies --    633.4839               654.0065               674.8286
 Red. masses --      4.2679                 3.9308                 3.0243
 Frc consts  --      1.0091                 0.9906                 0.8114
 IR Inten    --      2.8774                 8.4924                 6.7524

                     28                     29                     30
                      A                      A                      A
 Frequencies --    768.7044               771.2995               773.0765
 Red. masses --      1.3267                 5.0080                 1.8298
 Frc consts  --      0.4619                 1.7553                 0.6443
 IR Inten    --      0.1027                 0.2137                64.4766

                     31                     32                     33
                      A                      A                      A
 Frequencies --    791.7609               829.1514               877.5215
 Red. masses --      5.2913                 2.9133                 1.4611
 Frc consts  --      1.9543                 1.1801                 0.6629
 IR Inten    --      3.1433                45.8725                 0.1182

                     34                     35                     36
                      A                      A                      A
 Frequencies --    895.3145               900.0959               950.0929
 Red. masses --      1.5017                 4.1697                 3.6359
 Frc consts  --      0.7092                 1.9904                 1.9337
 IR Inten    --      1.7831                 2.3809                39.1656

                     37                     38                     39
                      A                      A                      A
 Frequencies --    970.1710               979.7008              1045.4950
 Red. masses --      1.2928                 1.3078                 2.6883
 Frc consts  --      0.7169                 0.7396                 1.7313
 IR Inten    --      0.5516                 0.5446                91.7435

                     40                     41                     42
                      A                      A                      A
 Frequencies --   1055.2937              1077.4305              1077.7421
 Red. masses --      4.3655                 1.4980                 1.4796
 Frc consts  --      2.8644                 1.0245                 1.0125
 IR Inten    --     27.0505                24.1724                10.0059

                     43                     44                     45
                      A                      A                      A
 Frequencies --   1113.2443              1115.7822              1127.5553
 Red. masses --      1.3054                 1.3323                 1.8369
 Frc consts  --      0.9532                 0.9772                 1.3760
 IR Inten    --     11.4153                 5.3478                 0.1889

                     46                     47                     48
                      A                      A                      A
 Frequencies --   1135.4069              1163.2133              1166.9063
 Red. masses --      1.7409                 1.4602                 1.4445
 Frc consts  --      1.3223                 1.1641                 1.1589
 IR Inten    --      4.1631                 1.2159                46.0328

                     49                     50                     51
                      A                      A                      A
 Frequencies --   1182.2156              1190.5572              1211.4902
 Red. masses --      1.3189                 1.2811                 3.4480
 Frc consts  --      1.0861                 1.0698                 2.9816
 IR Inten    --      1.5543                 2.6064                29.4519

                     52                     53                     54
                      A                      A                      A
 Frequencies --   1224.4980              1228.5281              1246.1711
 Red. masses --      1.4831                 2.0937                 2.7183
 Frc consts  --      1.3102                 1.8618                 2.4872
 IR Inten    --      6.2486                 5.2213                18.2517

                     55                     56                     57
                      A                      A                      A
 Frequencies --   1251.7522              1340.0802              1352.5808
 Red. masses --      2.4793                 3.1723                 2.0969
 Frc consts  --      2.2888                 3.3565                 2.2602
 IR Inten    --     15.7666                18.8283                51.7487

                     58                     59                     60
                      A                      A                      A
 Frequencies --   1371.3715              1378.0302              1412.8653
 Red. masses --      6.7734                 3.6371                 3.2265
 Frc consts  --      7.5053                 4.0694                 3.7947
 IR Inten    --     21.0426                18.7135                73.7337

                     61                     62                     63
                      A                      A                      A
 Frequencies --   1448.7440              1449.0769              1462.7613
 Red. masses --      1.1584                 1.1589                 1.6956
 Frc consts  --      1.4325                 1.4338                 2.1376
 IR Inten    --      0.0921                 0.7330                22.0867

                     64                     65                     66
                      A                      A                      A
 Frequencies --   1470.1970              1477.1232              1481.9358
 Red. masses --      1.4360                 1.1655                 1.1569
 Frc consts  --      1.8287                 1.4983                 1.4969
 IR Inten    --      4.7080                 0.9457                 0.0766

                     67                     68                     69
                      A                      A                      A
 Frequencies --   1484.0549              1489.9771              1497.5398
 Red. masses --      1.0589                 1.2453                 1.1658
 Frc consts  --      1.3740                 1.6289                 1.5404
 IR Inten    --      6.9385                 6.7943                20.0353

                     70                     71                     72
                      A                      A                      A
 Frequencies --   1497.7012              1505.1933              1507.4943
 Red. masses --      1.0515                 1.0549                 1.2394
 Frc consts  --      1.3897                 1.4081                 1.6595
 IR Inten    --     32.3418                 2.8560                16.9711

                     73                     74                     75
                      A                      A                      A
 Frequencies --   1525.5268              1529.3302              1551.4638
 Red. masses --      1.0862                 1.0936                 3.7115
 Frc consts  --      1.4894                 1.5070                 5.2636
 IR Inten    --     10.7095                22.0659                23.0685

                     76                     77                     78
                      A                      A                      A
 Frequencies --   1617.4914              1641.6876              1650.3934
 Red. masses --      5.6028                 5.2506                 5.7383
 Frc consts  --      8.6366                 8.3375                 9.2089
 IR Inten    --    189.3545                 0.3960                10.6474

                     79                     80                     81
                      A                      A                      A
 Frequencies --   2938.1386              2938.4321              2951.3615
 Red. masses --      1.0603                 1.0602                 1.0611
 Frc consts  --      5.3928                 5.3933                 5.4457
 IR Inten    --    161.3353                12.3580               289.5984

                     82                     83                     84
                      A                      A                      A
 Frequencies --   2953.2381              3066.5355              3066.5585
 Red. masses --      1.0610                 1.0725                 1.0731
 Frc consts  --      5.4519                 5.9422                 5.9455
 IR Inten    --     43.4032                20.2576                40.5356

                     85                     86                     87
                      A                      A                      A
 Frequencies --   3073.8769              3074.4288              3120.2080
 Red. masses --      1.0808                 1.0803                 1.1024
 Frc consts  --      6.0171                 6.0161                 6.3234
 IR Inten    --     13.4970                86.9627                16.1398

                     88                     89                     90
                      A                      A                      A
 Frequencies --   3120.2374              3177.1398              3179.0499
 Red. masses --      1.1023                 1.0859                 1.0868
 Frc consts  --      6.3228                 6.4584                 6.4713
 IR Inten    --     25.5034                 6.0599                 0.0258

                     91                     92                     93
                      A                      A                      A
 Frequencies --   3179.6199              3179.8270              3194.7183
 Red. masses --      1.0938                 1.0943                 1.0954
 Frc consts  --      6.5151                 6.5193                 6.5871
 IR Inten    --      5.6424                12.7240                12.1033

                     94                     95                     96
                      A                      A                      A
 Frequencies --   3197.4787              3223.3564              3223.3911
 Red. masses --      1.0946                 1.0910                 1.0908
 Frc consts  --      6.5937                 6.6787                 6.6776
 IR Inten    --     47.5163                20.8575                 1.9138

 - Thermochemistry -
 -------------------
 Temperature   298.150 Kelvin.  Pressure   1.00000 Atm.
 Atom     1 has atomic number  6 and mass  12.00000

 Molecular mass:   214.14700 amu.
 Principal axes and moments of inertia in atomic units:
                           1         2         3
     Eigenvalues --  2859.634292884.556555077.08174
           X            1.00000  -0.00016  -0.00000
           Y            0.00016   1.00000   0.00180
           Z            0.00000  -0.00180   1.00000
 This molecule is an asymmetric top.
 Rotational symmetry number  1.
 Warning -- assumption of classical behavior for rotation
           may cause significant error
 Rotational temperatures (Kelvin)      0.03029     0.03003     0.01706
 Rotational constants (GHZ):           0.63111     0.62566     0.35547
 Zero-point vibrational energy     769193.3 (Joules/Mol)
                                  183.84160 (Kcal/Mol)
 Warning -- explicit consideration of  24 degrees of freedom as
           vibrations may cause significant error
 Vibrational temperatures:     73.21   144.20   165.89   179.57   183.99
          (Kelvin)            224.43   256.96   306.40   342.70   383.38
                              437.08   449.51   456.24   473.12   508.95
                              531.99   557.56   640.28   688.56   699.04
                              770.33   771.45   776.81   792.70   911.44
                              940.97   970.93  1105.99  1109.73  1112.28
                             1139.17  1192.96  1262.56  1288.16  1295.04
                             1366.97  1395.86  1409.57  1504.23  1518.33
                             1550.18  1550.63  1601.71  1605.36  1622.30
                             1633.60  1673.60  1678.92  1700.94  1712.94
                             1743.06  1761.78  1767.58  1792.96  1800.99
                             1928.07  1946.06  1973.10  1982.68  2032.80
                             2084.42  2084.90  2104.58  2115.28  2125.25
                             2132.17  2135.22  2143.74  2154.62  2154.86
                             2165.63  2168.95  2194.89  2200.36  2232.21
                             2327.21  2362.02  2374.55  4227.32  4227.74
                             4246.35  4249.05  4412.06  4412.09  4422.62
                             4423.41  4489.28  4489.32  4571.19  4573.94
                             4574.76  4575.06  4596.48  4600.45  4637.69
                             4637.73

 Zero-point correction=                           0.292970 (Hartree/Particle)
 Thermal correction to Energy=                    0.307918
 Thermal correction to Enthalpy=                  0.308862
 Thermal correction to Gibbs Free Energy=         0.252280
 Sum of electronic and zero-point Energies=           -653.559873
 Sum of electronic and thermal Energies=              -653.544925
 Sum of electronic and thermal Enthalpies=            -653.543981
 Sum of electronic and thermal Free Energies=         -653.600563

                     E (Thermal)             CV                S
                      KCal/Mol        Cal/Mol-Kelvin    Cal/Mol-Kelvin
 Total                  193.222             59.449            119.088
 Electronic               0.000              0.000              0.000
 Translational            0.889              2.981             41.988
 Rotational               0.889              2.981             32.105
 Vibrational            191.444             53.487             44.995
 Vibration     1          0.595              1.977              4.783
 Vibration     2          0.604              1.949              3.450
 Vibration     3          0.608              1.937              3.178
 Vibration     4          0.610              1.928              3.025
 Vibration     5          0.611              1.925              2.978
 Vibration     6          0.620              1.896              2.598
 Vibration     7          0.629              1.869              2.343
 Vibration     8          0.644              1.821              2.018
 Vibration     9          0.656              1.782              1.816
 Vibration    10          0.672              1.735              1.619
 Vibration    11          0.695              1.667              1.396
 Vibration    12          0.701              1.650              1.349
 Vibration    13          0.704              1.641              1.325
 Vibration    14          0.712              1.618              1.266
 Vibration    15          0.730              1.568              1.150
 Vibration    16          0.742              1.534              1.081
 Vibration    17          0.756              1.497              1.010
 Vibration    18          0.804              1.372              0.811
 Vibration    19          0.835              1.298              0.714
 Vibration    20          0.842              1.281              0.694
 Vibration    21          0.890              1.172              0.575
 Vibration    22          0.891              1.170              0.574
 Vibration    23          0.895              1.162              0.565
 Vibration    24          0.906              1.138              0.542

 Optimization completed.
    -- Stationary point found.
 Normal termination of Gaussian 09 at Thu Jun 20 12:22:59 2024.
