 Gaussian 09, Revision E.01,
 Gaussian 09:  ES64L-G09RevE.01 30-Nov-2015

 ----------------------------
 # opt freq b3lyp/6-31+g(d,p)
 ----------------------------

 ----------
 [No Title]
 ----------
 Symbolic Z-matrix:
 Charge =  1 Multiplicity = 1

 SCF Done:  E(RB3LYP) =  -654.147155767     A.U. after   15 cycles
 SCF Done:  E(RB3LYP) =  -654.207962796     A.U. after   13 cycles
 SCF Done:  E(RB3LYP) =  -654.216887785     A.U. after   14 cycles
 SCF Done:  E(RB3LYP) =  -654.229617012     A.U. after   15 cycles
 SCF Done:  E(RB3LYP) =  -654.229531741     A.U. after   15 cycles
 SCF Done:  E(RB3LYP) =  -654.233448546     A.U. after   12 cycles
 SCF Done:  E(RB3LYP) =  -654.241727247     A.U. after   14 cycles
 SCF Done:  E(RB3LYP) =  -654.248587089     A.U. after   15 cycles
 SCF Done:  E(RB3LYP) =  -654.252163462     A.U. after   13 cycles
 SCF Done:  E(RB3LYP) =  -654.255188393     A.U. after   14 cycles
 SCF Done:  E(RB3LYP) =  -654.258258222     A.U. after   12 cycles
 SCF Done:  E(RB3LYP) =  -654.258443604     A.U. after   14 cycles
 SCF Done:  E(RB3LYP) =  -654.258536279     A.U. after   11 cycles
 SCF Done:  E(RB3LYP) =  -654.258569901     A.U. after   10 cycles
 SCF Done:  E(RB3LYP) =  -654.258590490     A.U. after   11 cycles
 SCF Done:  E(RB3LYP) =  -654.258601338     A.U. after   11 cycles
 SCF Done:  E(RB3LYP) =  -654.258606700     A.U. after   11 cycles
 SCF Done:  E(RB3LYP) =  -654.258607613     A.U. after    9 cycles
 SCF Done:  E(RB3LYP) =  -654.258607815     A.U. after    8 cycles
 Optimization completed.
    -- Stationary point found.
 Normal termination of Gaussian 09 at Thu Jun 20 15:13:11 2024.

 ----------------------------------------------------------------------
 #N Geom=AllCheck Guess=TCheck SCRF=Check GenChk RB3LYP/6-31+G(d,p) Fre
 q
 ----------------------------------------------------------------------

 Structure from the checkpoint file:  "b3lypDMANyanggd3.chk"
 ----------
 [No Title]
 ----------
 Charge =  1 Multiplicity = 1

                         Standard orientation:
 ---------------------------------------------------------------------
 Center     Atomic      Atomic             Coordinates (Angstroms)
 Number     Number       Type             X           Y           Z
 ---------------------------------------------------------------------
      1          6           0        0.754106    2.442870   -0.000170
      2          6           0        2.165876    2.405390   -0.000163
      3          6           0        2.814104    1.192108   -0.000039
      4          6           0        2.091463   -0.031414    0.000055
      5          6           0        0.650676   -0.015357    0.000040
      6          6           0        0.028796    1.273106   -0.000078
      7          6           0        2.780908   -1.273378    0.000118
      8          6           0        2.091812   -2.463237    0.000200
      9          6           0        0.679085   -2.457201    0.000151
     10          6           0       -0.034220   -1.276056    0.000179
     11          7           0       -1.453557    1.334287    0.000045
     12          7           0       -1.498805   -1.288512   -0.000173
     13          6           0       -2.019166    1.955044    1.241233
     14          6           0       -2.019416    1.955593   -1.240774
     15          6           0       -2.066185   -1.907336   -1.223670
     16          6           0       -2.066942   -1.907088    1.223139
     17          1           0        0.249507    3.404171   -0.000326
     18          1           0        2.726466    3.333793   -0.000239
     19          1           0        3.899128    1.152088   -0.000009
     20          1           0        3.866559   -1.265194    0.000187
     21          1           0        2.623586   -3.408886    0.000199
     22          1           0        0.148549   -3.404340    0.000140
     23          1           0       -1.714052    0.256312   -0.000213
     24          1           0       -3.104662    1.838729    1.227242
     25          1           0       -1.599266    1.449297    2.110841
     26          1           0       -1.764879    3.015303    1.278507
     27          1           0       -3.104917    1.839383   -1.226542
     28          1           0       -1.599788    1.450119   -2.110673
     29          1           0       -1.765023    3.015838   -1.277734
     30          1           0       -1.638357   -1.432022   -2.109086
     31          1           0       -1.860088   -2.983560   -1.273432
     32          1           0       -3.150157   -1.762505   -1.226151
     33          1           0       -1.639417   -1.431781    2.108691
     34          1           0       -3.150889   -1.762074    1.225023
     35          1           0       -1.861119   -2.983361    1.273137
 ---------------------------------------------------------------------

 SCF Done:  E(RB3LYP) =  -654.258607815     A.U. after    1 cycles

 The electronic state is 1-A.
 Alpha  occ. eigenvalues --  -14.57501 -14.50629 -10.38170 -10.37814 -10.37814
 Alpha  occ. eigenvalues --  -10.36664 -10.35273 -10.34740 -10.34739 -10.34106
 Alpha  occ. eigenvalues --  -10.33993 -10.32898 -10.32786 -10.32719 -10.32274
 Alpha  occ. eigenvalues --  -10.32208  -1.14233  -1.08182  -1.00849  -0.95773
 Alpha  occ. eigenvalues --   -0.91374  -0.88537  -0.88497  -0.86465  -0.84999
 Alpha  occ. eigenvalues --   -0.82731  -0.79259  -0.76685  -0.74865  -0.72001
 Alpha  occ. eigenvalues --   -0.68348  -0.66516  -0.65829  -0.63578  -0.63497
 Alpha  occ. eigenvalues --   -0.62340  -0.59801  -0.59756  -0.59298  -0.57338
 Alpha  occ. eigenvalues --   -0.56852  -0.56608  -0.55431  -0.54971  -0.54452
 Alpha  occ. eigenvalues --   -0.53634  -0.52871  -0.52376  -0.52299  -0.51096
 Alpha  occ. eigenvalues --   -0.50927  -0.48324  -0.47777  -0.46304  -0.42247
 Alpha  occ. eigenvalues --   -0.39176  -0.38436  -0.35464
 Alpha virt. eigenvalues --   -0.18555  -0.15424  -0.12558  -0.11964  -0.10086
 Alpha virt. eigenvalues --   -0.09447  -0.09370  -0.08819  -0.08337  -0.07298
 Alpha virt. eigenvalues --   -0.07074  -0.06787  -0.05763  -0.05541  -0.05269

 Mulliken charges:
               1
     1  C   -0.012309
     2  C   -0.221756
     3  C   -0.057294
     4  C   -0.387556
     5  C    0.013738
     6  C   -0.190337
     7  C   -0.082228
     8  C   -0.213143
     9  C   -0.013709
    10  C   -0.213479
    11  N   -0.319174
    12  N   -0.377516
    13  C   -0.125181
    14  C   -0.125053
    15  C   -0.117272
    16  C   -0.117113
    17  H    0.143002
    18  H    0.162754
    19  H    0.157555
    20  H    0.155573
    21  H    0.161081
    22  H    0.144269
    23  H    0.478435
    24  H    0.186995
    25  H    0.193888
    26  H    0.192520
    27  H    0.186995
    28  H    0.193896
    29  H    0.192503
    30  H    0.166747
    31  H    0.171497
    32  H    0.166705
    33  H    0.166740
    34  H    0.166710
    35  H    0.171519
 Sum of Mulliken charges =   1.00000

 Dipole moment (field-independent basis, Debye):
    X=             -3.9507    Y=              1.7831    Z=             -0.0000  Tot=              4.3345
 Quadrupole moment (field-independent basis, Debye-Ang):
   XX=            -63.5797   YY=            -64.9650   ZZ=            -92.0376
   XY=             -3.4907   XZ=             -0.0002   YZ=             -0.0001

  Exact polarizability: 196.796   0.786 213.567  -0.001  -0.005 111.299
 Approx polarizability: 299.703   0.848 361.016  -0.002  -0.013 166.706

                      1                      2                      3
                      A                      A                      A
 Frequencies --     28.8701                89.0847               130.4637
 Red. masses --      3.5309                 2.6845                 3.3081
 Frc consts  --      0.0017                 0.0126                 0.0332
 IR Inten    --      0.1003                 0.1362                 0.4090

                      4                      5                      6
                      A                      A                      A
 Frequencies --    142.0942               167.3793               179.8954
 Red. masses --      2.3528                 2.8182                 3.0911
 Frc consts  --      0.0280                 0.0465                 0.0589
 IR Inten    --      0.2543                16.0601                 3.5146

                      7                      8                      9
                      A                      A                      A
 Frequencies --    192.8811               219.1809               228.6671
 Red. masses --      3.5851                 1.1437                 1.3439
 Frc consts  --      0.0786                 0.0324                 0.0414
 IR Inten    --      0.3457                 0.1035                 0.4101

                     10                     11                     12
                      A                      A                      A
 Frequencies --    241.3252               254.7611               259.2029
 Red. masses --      1.0876                 1.2524                 2.1379
 Frc consts  --      0.0373                 0.0479                 0.0846
 IR Inten    --      0.0285                 3.2400                 1.2350

                     13                     14                     15
                      A                      A                      A
 Frequencies --    272.3794               318.8403               321.9621
 Red. masses --      2.1372                 2.7716                 3.3403
 Frc consts  --      0.0934                 0.1660                 0.2040
 IR Inten    --      0.0783                 2.1338                 0.2340

                     16                     17                     18
                      A                      A                      A
 Frequencies --    382.2610               428.0997               446.8253
 Red. masses --      3.7052                 3.1236                 2.9246
 Frc consts  --      0.3190                 0.3373                 0.3440
 IR Inten    --     12.8230                22.7943                 0.3673

                     19                     20                     21
                      A                      A                      A
 Frequencies --    479.2611               499.2910               527.2165
 Red. masses --      3.3461                 5.3552                 3.9578
 Frc consts  --      0.4528                 0.7866                 0.6482
 IR Inten    --      0.5957                16.9545                13.0181

                     22                     23                     24
                      A                      A                      A
 Frequencies --    536.9350               537.9688               571.8823
 Red. masses --      5.4994                 3.6007                 3.8296
 Frc consts  --      0.9341                 0.6140                 0.7379
 IR Inten    --      0.1855                 0.0225                 4.2170

                     25                     26                     27
                      A                      A                      A
 Frequencies --    643.8171               666.8506               671.6646
 Red. masses --      4.1140                 3.1851                 3.6414
 Frc consts  --      1.0047                 0.8345                 0.9679
 IR Inten    --      0.2410                 0.1165                54.1896

                     28                     29                     30
                      A                      A                      A
 Frequencies --    768.9680               781.1136               788.8962
 Red. masses --      4.8567                 2.1957                 1.2841
 Frc consts  --      1.6920                 0.7893                 0.4708
 IR Inten    --      1.2625                60.7758                 0.1711

                     31                     32                     33
                      A                      A                      A
 Frequencies --    794.1835               845.3959               873.0489
 Red. masses --      5.3294                 2.1975                 4.0943
 Frc consts  --      1.9805                 0.9253                 1.8387
 IR Inten    --      0.3421                30.1713                34.0272

                     34                     35                     36
                      A                      A                      A
 Frequencies --    910.0312               928.9670               947.9187
 Red. masses --      3.7881                 1.3801                 1.4461
 Frc consts  --      1.8483                 0.7017                 0.7656
 IR Inten    --     33.0648                 0.3469                 2.5639

                     37                     38                     39
                      A                      A                      A
 Frequencies --    999.2017              1006.5730              1007.8158
 Red. masses --      1.3621                 3.5420                 2.0972
 Frc consts  --      0.8013                 2.1144                 1.2550
 IR Inten    --      0.1943                33.6934                11.8067

                     40                     41                     42
                      A                      A                      A
 Frequencies --   1011.2132              1034.8692              1041.6531
 Red. masses --      1.3848                 1.9109                 4.1160
 Frc consts  --      0.8343                 1.2057                 2.6313
 IR Inten    --      2.7677                16.7488                12.5680

                     43                     44                     45
                      A                      A                      A
 Frequencies --   1084.7024              1104.9788              1110.0689
 Red. masses --      1.1977                 2.1852                 1.2417
 Frc consts  --      0.8303                 1.5720                 0.9015
 IR Inten    --      0.1364                 6.3938                 1.5397

                     46                     47                     48
                      A                      A                      A
 Frequencies --   1111.9587              1175.1296              1184.1364
 Red. masses --      1.8595                 1.9591                 1.3281
 Frc consts  --      1.3546                 1.5939                 1.0972
 IR Inten    --      2.3937                 3.5520                 2.1945

                     49                     50                     51
                      A                      A                      A
 Frequencies --   1187.6431              1193.0609              1198.7107
 Red. masses --      1.3964                 2.5412                 1.5241
 Frc consts  --      1.1605                 2.1311                 1.2903
 IR Inten    --      2.3746                 8.7738                 1.2713

                     52                     53                     54
                      A                      A                      A
 Frequencies --   1208.4622              1226.4964              1239.0702
 Red. masses --      1.3084                 1.5795                 1.6662
 Frc consts  --      1.1258                 1.4000                 1.5072
 IR Inten    --     12.7940                21.2008                43.0973

                     55                     56                     57
                      A                      A                      A
 Frequencies --   1247.7221              1271.2339              1295.7382
 Red. masses --      2.1144                 2.1814                 2.4660
 Frc consts  --      1.9395                 2.0770                 2.4394
 IR Inten    --      4.1151                 1.4185                17.3246

                     58                     59                     60
                      A                      A                      A
 Frequencies --   1378.5050              1385.7747              1397.8417
 Red. masses --      2.9971                 3.3985                 4.0723
 Frc consts  --      3.3556                 3.8452                 4.6882
 IR Inten    --     47.0849                27.7538                18.7841

                     61                     62                     63
                      A                      A                      A
 Frequencies --   1444.9894              1447.4942              1449.6534
 Red. masses --      1.1408                 1.3224                 1.1400
 Frc consts  --      1.4034                 1.6325                 1.4115
 IR Inten    --      1.1748                65.1863                 5.2499

                     64                     65                     66
                      A                      A                      A
 Frequencies --   1472.6725              1480.1747              1483.5146
 Red. masses --      1.5784                 1.2285                 1.0437
 Frc consts  --      2.0169                 1.5858                 1.3533
 IR Inten    --      0.0087                 1.6030                 0.0596

                     67                     68                     69
                      A                      A                      A
 Frequencies --   1491.6581              1493.7814              1496.1853
 Red. masses --      1.0497                 1.6419                 1.0436
 Frc consts  --      1.3762                 2.1586                 1.3764
 IR Inten    --      2.7808                 1.3955                 4.4041

                     70                     71                     72
                      A                      A                      A
 Frequencies --   1504.4330              1505.9347              1510.3410
 Red. masses --      1.3585                 1.0451                 1.0575
 Frc consts  --      1.8116                 1.3964                 1.4213
 IR Inten    --     14.0516                12.1025                 4.1759

                     73                     74                     75
                      A                      A                      A
 Frequencies --   1513.6473              1523.2880              1539.1314
 Red. masses --      1.0773                 1.0573                 2.8667
 Frc consts  --      1.4542                 1.4455                 4.0012
 IR Inten    --      5.5544                22.7738               106.5267

                     76                     77                     78
                      A                      A                      A
 Frequencies --   1593.4286              1622.8752              1658.2445
 Red. masses --      1.7085                 5.3779                 1.0863
 Frc consts  --      2.5559                 8.3451                 1.7600
 IR Inten    --    241.2368                19.8844                 3.7266

                     79                     80                     81
                      A                      A                      A
 Frequencies --   1659.7531              1677.1252              2129.5525
 Red. masses --      4.1140                 4.6554                 1.1177
 Frc consts  --      6.6772                 7.7151                 2.9863
 IR Inten    --     32.7484                85.3427              1188.5658

                     82                     83                     84
                      A                      A                      A
 Frequencies --   3034.7426              3039.2774              3076.8431
 Red. masses --      1.0367                 1.0380                 1.0311
 Frc consts  --      5.6255                 5.6492                 5.7513
 IR Inten    --     20.7037                24.2175                 5.0454

                     85                     86                     87
                      A                      A                      A
 Frequencies --   3081.0913              3110.9110              3111.5972
 Red. masses --      1.0319                 1.1000                 1.0984
 Frc consts  --      5.7716                 6.2724                 6.2656
 IR Inten    --      6.0153                 1.7471                23.9812

                     88                     89                     90
                      A                      A                      A
 Frequencies --   3144.3765              3146.2547              3167.0362
 Red. masses --      1.1051                 1.1056                 1.1077
 Frc consts  --      6.4374                 6.4479                 6.5459
 IR Inten    --      5.4718                19.6162                 0.0357

                     91                     92                     93
                      A                      A                      A
 Frequencies --   3169.6121              3180.8262              3181.6498
 Red. masses --      1.1069                 1.1072                 1.1078
 Frc consts  --      6.5521                 6.6001                 6.6070
 IR Inten    --      6.7882                 0.8869                 3.1779

                     94                     95                     96
                      A                      A                      A
 Frequencies --   3198.4673              3199.0318              3203.0981
 Red. masses --      1.0883                 1.0886                 1.0914
 Frc consts  --      6.5594                 6.5640                 6.5975
 IR Inten    --      0.5113                 3.8330                 0.3189

                     97                     98                     99
                      A                      A                      A
 Frequencies --   3205.3491              3220.6583              3223.7866
 Red. masses --      1.0910                 1.0972                 1.0968
 Frc consts  --      6.6041                 6.7056                 6.7163
 IR Inten    --      5.0698                 2.2278                 1.1334

 - Thermochemistry -
 -------------------
 Temperature   298.150 Kelvin.  Pressure   1.00000 Atm.
 Atom     1 has atomic number  6 and mass  12.00000

 Molecular mass:   215.15482 amu.
 Principal axes and moments of inertia in atomic units:
                           1         2         3
     Eigenvalues --  2855.115233005.454155121.71259
           X            0.99999  -0.00408  -0.00000
           Y            0.00408   0.99999   0.00000
           Z            0.00000  -0.00000   1.00000
 This molecule is an asymmetric top.
 Rotational symmetry number  1.
 Warning -- assumption of classical behavior for rotation
           may cause significant error
 Rotational temperatures (Kelvin)      0.03034     0.02882     0.01691
 Rotational constants (GHZ):           0.63211     0.60049     0.35237
 Zero-point vibrational energy     804923.1 (Joules/Mol)
                                  192.38123 (Kcal/Mol)
 Warning -- explicit consideration of  24 degrees of freedom as
           vibrations may cause significant error
 Vibrational temperatures:     41.54   128.17   187.71   204.44   240.82
          (Kelvin)            258.83   277.51   315.35   329.00   347.21
                              366.54   372.93   391.89   458.74   463.23
                              549.99   615.94   642.88   689.55   718.37
                              758.55   772.53   774.02   822.81   926.31
                              959.45   966.37  1106.37  1123.85  1135.04
                             1142.65  1216.33  1256.12  1309.33  1336.57
                             1363.84  1437.63  1448.23  1450.02  1454.91
                             1488.94  1498.70  1560.64  1589.82  1597.14
                             1599.86  1690.75  1703.71  1708.75  1716.55
                             1724.68  1738.71  1764.65  1782.74  1795.19
                             1829.02  1864.28  1983.36  1993.82  2011.18
                             2079.01  2082.62  2085.73  2118.84  2129.64
                             2134.44  2146.16  2149.22  2152.67  2164.54
                             2166.70  2173.04  2177.80  2191.67  2214.46
                             2292.59  2334.95  2385.84  2388.01  2413.01
                             3063.95  4366.31  4372.84  4426.89  4433.00
                             4475.90  4476.89  4524.05  4526.75  4556.65
                             4560.36  4576.49  4577.68  4601.88  4602.69
                             4608.54  4611.78  4633.80  4638.30

 Zero-point correction=                           0.306579 (Hartree/Particle)
 Thermal correction to Energy=                    0.321612
 Thermal correction to Enthalpy=                  0.322556
 Thermal correction to Gibbs Free Energy=         0.265495
 Sum of electronic and zero-point Energies=           -653.952029
 Sum of electronic and thermal Energies=              -653.936996
 Sum of electronic and thermal Enthalpies=            -653.936052
 Sum of electronic and thermal Free Energies=         -653.993113

                     E (Thermal)             CV                S
                      KCal/Mol        Cal/Mol-Kelvin    Cal/Mol-Kelvin
 Total                  201.814             59.726            120.095
 Electronic               0.000              0.000              0.000
 Translational            0.889              2.981             42.002
 Rotational               0.889              2.981             32.152
 Vibrational            200.037             53.765             45.940
 Vibration     1          0.593              1.984              5.906
 Vibration     2          0.602              1.957              3.680
 Vibration     3          0.612              1.923              2.939
 Vibration     4          0.616              1.911              2.775
 Vibration     5          0.624              1.883              2.465
 Vibration     6          0.629              1.867              2.330
 Vibration     7          0.635              1.850              2.200
 Vibration     8          0.647              1.812              1.966
 Vibration     9          0.651              1.797              1.889
 Vibration    10          0.658              1.777              1.793
 Vibration    11          0.665              1.755              1.697
 Vibration    12          0.668              1.747              1.667
 Vibration    13          0.675              1.724              1.581
 Vibration    14          0.705              1.638              1.316
 Vibration    15          0.707              1.631              1.300
 Vibration    16          0.752              1.508              1.030
 Vibration    17          0.790              1.409              0.865
 Vibration    18          0.806              1.368              0.805
 Vibration    19          0.836              1.296              0.712
 Vibration    20          0.855              1.252              0.660
 Vibration    21          0.882              1.190              0.593
 Vibration    22          0.892              1.168              0.572
 Vibration    23          0.893              1.166              0.570
 Vibration    24          0.928              1.092              0.501

 Optimization completed.
    -- Stationary point found.
 Normal termination of Gaussian 09 at Thu Jun 20 15:19:09 2024.
