 Gaussian 09, Revision E.01,
 Gaussian 09:  ES64L-G09RevE.01 30-Nov-2015

 -----------------------------
 # opt freq b3pw91/6-31+g(d,p)
 -----------------------------

 ----------
 [No Title]
 ----------
 Symbolic Z-matrix:
 Charge =  1 Multiplicity = 1

 SCF Done:  E(RB3PW91) =  -654.010124663     A.U. after   15 cycles
 SCF Done:  E(RB3PW91) =  -654.010180540     A.U. after   12 cycles
 SCF Done:  E(RB3PW91) =  -654.010185657     A.U. after   12 cycles
 SCF Done:  E(RB3PW91) =  -654.010300005     A.U. after   11 cycles
 SCF Done:  E(RB3PW91) =  -654.010308134     A.U. after   10 cycles
 SCF Done:  E(RB3PW91) =  -654.010309086     A.U. after    9 cycles
 SCF Done:  E(RB3PW91) =  -654.010307414     A.U. after   10 cycles
 SCF Done:  E(RB3PW91) =  -654.010310894     A.U. after    9 cycles
 Optimization completed.
    -- Stationary point found.
 Normal termination of Gaussian 09 at Sun Dec 15 14:01:33 2024.

 ----------------------------------------------------------------------
 #N Geom=AllCheck Guess=TCheck SCRF=Check GenChk RB3PW91/6-31+G(d,p) Fr
 eq
 ----------------------------------------------------------------------

 Structure from the checkpoint file:  "B3PW91DMANyang.chk"
 ----------
 [No Title]
 ----------
 Charge =  1 Multiplicity = 1

                         Standard orientation:
 ---------------------------------------------------------------------
 Center     Atomic      Atomic             Coordinates (Angstroms)
 Number     Number       Type             X           Y           Z
 ---------------------------------------------------------------------
      1          6           0        0.759884   -2.434495    0.000109
      2          6           0        2.168943   -2.391396    0.000093
      3          6           0        2.812478   -1.177577    0.000029
      4          6           0        2.086443    0.040679   -0.000023
      5          6           0        0.649649    0.017141   -0.000009
      6          6           0        0.031299   -1.268855    0.000060
      7          6           0        2.767183    1.284224   -0.000089
      8          6           0        2.071967    2.468714   -0.000141
      9          6           0        0.661986    2.455065   -0.000127
     10          6           0       -0.040617    1.270052   -0.000064
     11          7           0       -1.442525   -1.326975    0.000082
     12          7           0       -1.499842    1.268051   -0.000054
     13          6           0       -2.001447   -1.946790   -1.233134
     14          6           0       -2.001415   -1.946702    1.233356
     15          6           0       -2.068522    1.879546    1.218361
     16          6           0       -2.068539    1.879488   -1.218490
     17          1           0        0.258049   -3.397974    0.000162
     18          1           0        2.733658   -3.317788    0.000134
     19          1           0        3.897810   -1.134226    0.000016
     20          1           0        3.853308    1.283221   -0.000099
     21          1           0        2.599081    3.417390   -0.000192
     22          1           0        0.124472    3.399039   -0.000170
     23          1           0       -1.697297   -0.227962    0.000051
     24          1           0       -3.087138   -1.829462   -1.225896
     25          1           0       -1.578342   -1.447034   -2.105025
     26          1           0       -1.751147   -3.008739   -1.268583
     27          1           0       -3.087106   -1.829379    1.226137
     28          1           0       -1.578291   -1.446880    2.105201
     29          1           0       -1.751108   -3.008647    1.268877
     30          1           0       -1.632947    1.411568    2.103869
     31          1           0       -1.873601    2.957866    1.264541
     32          1           0       -3.150988    1.723849    1.224878
     33          1           0       -1.632969    1.411475   -2.103981
     34          1           0       -3.151004    1.723783   -1.224989
     35          1           0       -1.873627    2.957807   -1.264719
 ---------------------------------------------------------------------

 SCF Done:  E(RB3PW91) =  -654.010310894     A.U. after    1 cycles

 The electronic state is 1-A.
 Alpha  occ. eigenvalues --  -14.56363 -14.50443 -10.36919 -10.36169 -10.36169
 Alpha  occ. eigenvalues --  -10.35625 -10.34094 -10.33541 -10.33541 -10.32837
 Alpha  occ. eigenvalues --  -10.32825 -10.31779 -10.31527 -10.31460 -10.31087
 Alpha  occ. eigenvalues --  -10.31020  -1.14838  -1.09381  -1.01490  -0.96330
 Alpha  occ. eigenvalues --   -0.91901  -0.88994  -0.88731  -0.86913  -0.85676
 Alpha  occ. eigenvalues --   -0.82880  -0.79779  -0.77075  -0.75130  -0.72326
 Alpha  occ. eigenvalues --   -0.68548  -0.66928  -0.66120  -0.63899  -0.63709
 Alpha  occ. eigenvalues --   -0.62570  -0.60464  -0.60063  -0.59511  -0.57540
 Alpha  occ. eigenvalues --   -0.56655  -0.56652  -0.55383  -0.54903  -0.54226
 Alpha  occ. eigenvalues --   -0.53876  -0.52965  -0.52653  -0.52263  -0.51300
 Alpha  occ. eigenvalues --   -0.50962  -0.48317  -0.47801  -0.46655  -0.42564
 Alpha  occ. eigenvalues --   -0.39478  -0.38768  -0.35725
 Alpha virt. eigenvalues --   -0.18702  -0.15540  -0.11929  -0.11385  -0.08990
 Alpha virt. eigenvalues --   -0.08334  -0.08218  -0.07946  -0.07330  -0.06244
 Alpha virt. eigenvalues --   -0.06032  -0.05703  -0.05296  -0.04693  -0.04513

 Mulliken charges:
               1
     1  C   -0.141367
     2  C   -0.271536
     3  C   -0.180411
     4  C   -0.214292
     5  C    0.087962
     6  C   -0.067777
     7  C   -0.212232
     8  C   -0.257265
     9  C   -0.154149
    10  C   -0.079312
    11  N   -0.278691
    12  N   -0.335343
    13  C   -0.200445
    14  C   -0.200441
    15  C   -0.193137
    16  C   -0.193140
    17  H    0.167578
    18  H    0.189054
    19  H    0.184354
    20  H    0.182647
    21  H    0.187492
    22  H    0.168282
    23  H    0.496109
    24  H    0.199817
    25  H    0.204648
    26  H    0.204488
    27  H    0.199818
    28  H    0.204648
    29  H    0.204486
    30  H    0.181022
    31  H    0.185834
    32  H    0.182222
    33  H    0.181024
    34  H    0.182221
    35  H    0.185832
 Sum of Mulliken charges =   1.00000

 Dipole moment (field-independent basis, Debye):
    X=             -3.9366    Y=             -1.5457    Z=              0.0001  Tot=              4.2292
 Quadrupole moment (field-independent basis, Debye-Ang):
   XX=            -62.2724   YY=            -63.7215   ZZ=            -91.2546
   XY=              2.9565   XZ=             -0.0005   YZ=             -0.0015

  Exact polarizability: 194.320  -0.826 211.092  -0.001  -0.005 109.132
 Approx polarizability: 296.339  -1.215 356.876  -0.001  -0.010 161.810

                      1                      2                      3
                      A                      A                      A
 Frequencies --     28.1690                90.6894               130.4828
 Red. masses --      3.5163                 2.6986                 3.2947
 Frc consts  --      0.0016                 0.0131                 0.0331
 IR Inten    --      0.0743                 0.1472                 0.3736

                      4                      5                      6
                      A                      A                      A
 Frequencies --    146.4179               168.4628               178.5701
 Red. masses --      2.3153                 2.7803                 3.1429
 Frc consts  --      0.0292                 0.0465                 0.0590
 IR Inten    --      0.1731                21.2824                 3.8099

                      7                      8                      9
                      A                      A                      A
 Frequencies --    192.0681               221.1745               229.5346
 Red. masses --      3.6437                 1.1360                 1.3872
 Frc consts  --      0.0792                 0.0327                 0.0431
 IR Inten    --      0.2519                 0.0771                 0.3846

                     10                     11                     12
                      A                      A                      A
 Frequencies --    241.3085               258.1934               260.9910
 Red. masses --      1.0846                 1.3029                 2.0558
 Frc consts  --      0.0372                 0.0512                 0.0825
 IR Inten    --      0.0295                 3.7267                 0.5558

                     13                     14                     15
                      A                      A                      A
 Frequencies --    272.4942               318.0984               320.5625
 Red. masses --      1.9803                 2.7054                 3.3421
 Frc consts  --      0.0866                 0.1613                 0.2023
 IR Inten    --      0.0912                 2.9986                 0.1690

                     16                     17                     18
                      A                      A                      A
 Frequencies --    380.5720               426.7140               446.3573
 Red. masses --      3.6925                 3.0843                 2.9375
 Frc consts  --      0.3151                 0.3309                 0.3448
 IR Inten    --     13.1732                33.1340                 0.3842

                     19                     20                     21
                      A                      A                      A
 Frequencies --    475.5629               499.2895               528.0611
 Red. masses --      3.3521                 5.2181                 4.1558
 Frc consts  --      0.4467                 0.7664                 0.6828
 IR Inten    --      0.5752                25.9747                17.4526

                     22                     23                     24
                      A                      A                      A
 Frequencies --    534.7217               537.3069               570.7694
 Red. masses --      5.0494                 3.5921                 3.8430
 Frc consts  --      0.8506                 0.6110                 0.7376
 IR Inten    --      3.2395                 0.0165                 3.0192

                     25                     26                     27
                      A                      A                      A
 Frequencies --    643.8956               667.1397               674.4768
 Red. masses --      4.1136                 3.1284                 3.5712
 Frc consts  --      1.0049                 0.8204                 0.9572
 IR Inten    --      0.1294                 0.1056                78.0752

                     28                     29                     30
                      A                      A                      A
 Frequencies --    772.4205               779.5011               787.5394
 Red. masses --      4.7439                 2.2528                 1.2914
 Frc consts  --      1.6676                 0.8065                 0.4719
 IR Inten    --      1.7146                61.2303                 0.2782

                     31                     32                     33
                      A                      A                      A
 Frequencies --    792.6584               843.7050               886.2990
 Red. masses --      5.2751                 2.1489                 3.9606
 Frc consts  --      1.9528                 0.9013                 1.8331
 IR Inten    --      0.3408                35.5547                57.7553

                     34                     35                     36
                      A                      A                      A
 Frequencies --    922.7644               928.3846               946.9981
 Red. masses --      3.7267                 1.3761                 1.4425
 Frc consts  --      1.8696                 0.6988                 0.7622
 IR Inten    --     36.8032                 0.2195                 2.1026

                     37                     38                     39
                      A                      A                      A
 Frequencies --    999.0879              1010.4006              1015.8694
 Red. masses --      1.3304                 1.3460                 3.2990
 Frc consts  --      0.7824                 0.8096                 2.0059
 IR Inten    --      0.0025                 0.2806                38.1706

                     40                     41                     42
                      A                      A                      A
 Frequencies --   1024.7527              1044.0501              1046.1232
 Red. masses --      1.9575                 1.7289                 3.6602
 Frc consts  --      1.2111                 1.1103                 2.3601
 IR Inten    --     12.7936                14.6530                13.6779

                     43                     44                     45
                      A                      A                      A
 Frequencies --   1083.9699              1106.8393              1107.6481
 Red. masses --      1.2126                 1.2492                 1.9787
 Frc consts  --      0.8395                 0.9017                 1.4303
 IR Inten    --      0.4825                 1.2108                23.8148

                     46                     47                     48
                      A                      A                      A
 Frequencies --   1114.7887              1180.1633              1184.3392
 Red. masses --      1.8011                 1.3059                 2.2664
 Frc consts  --      1.3188                 1.0716                 1.8730
 IR Inten    --      2.4859                26.5525                 5.4158

                     49                     50                     51
                      A                      A                      A
 Frequencies --   1186.7960              1196.3518              1203.5287
 Red. masses --      1.4288                 1.3770                 2.9719
 Frc consts  --      1.1857                 1.1612                 2.5363
 IR Inten    --      3.1954                13.9135                 9.7351

                     52                     53                     54
                      A                      A                      A
 Frequencies --   1206.0586              1223.2581              1236.8405
 Red. masses --      1.3147                 1.5236                 1.6663
 Frc consts  --      1.1267                 1.3432                 1.5018
 IR Inten    --     24.8955                50.3593                45.9389

                     55                     56                     57
                      A                      A                      A
 Frequencies --   1253.2185              1279.9455              1302.7778
 Red. masses --      1.9777                 2.3699                 2.4880
 Frc consts  --      1.8300                 2.2875                 2.4879
 IR Inten    --      4.1769                 1.1856                17.8322

                     58                     59                     60
                      A                      A                      A
 Frequencies --   1377.7604              1399.9903              1415.4196
 Red. masses --      1.9655                 4.1646                 5.6011
 Frc consts  --      2.1982                 4.8093                 6.6114
 IR Inten    --    186.5081                14.1855                 2.2794

                     61                     62                     63
                      A                      A                      A
 Frequencies --   1431.8251              1439.3423              1443.7995
 Red. masses --      1.5715                 1.1441                 1.1429
 Frc consts  --      1.8983                 1.3965                 1.4037
 IR Inten    --    104.1913                 0.8955                 9.2204

                     64                     65                     66
                      A                      A                      A
 Frequencies --   1470.9415              1476.7584              1477.2759
 Red. masses --      1.5283                 1.3509                 1.0414
 Frc consts  --      1.9483                 1.7358                 1.3390
 IR Inten    --      0.4732                 2.8886                 0.0390

                     67                     68                     69
                      A                      A                      A
 Frequencies --   1486.1357              1490.0650              1490.8336
 Red. masses --      1.0478                 1.2353                 1.0427
 Frc consts  --      1.3635                 1.6159                 1.3654
 IR Inten    --      2.8445                 1.0732                 4.1367

                     70                     71                     72
                      A                      A                      A
 Frequencies --   1499.6455              1504.6819              1506.1870
 Red. masses --      1.0436                 1.3448                 1.2251
 Frc consts  --      1.3828                 1.7939                 1.6375
 IR Inten    --     13.8480                18.4895                 1.9960

                     73                     74                     75
                      A                      A                      A
 Frequencies --   1510.5526              1519.4543              1540.2857
 Red. masses --      1.2045                 1.0734                 2.1806
 Frc consts  --      1.6193                 1.4602                 3.0481
 IR Inten    --      9.9281                27.1107               268.8916

                     76                     77                     78
                      A                      A                      A
 Frequencies --   1588.5275              1635.9178              1667.3111
 Red. masses --      1.9667                 6.8019                 4.6191
 Frc consts  --      2.9240                10.7252                 7.5656
 IR Inten    --    279.0123                 6.9543                64.7627

                     79                     80                     81
                      A                      A                      A
 Frequencies --   1675.3263              1686.9875              1986.9723
 Red. masses --      1.0837                 6.5193                 1.1146
 Frc consts  --      1.7920                10.9314                 2.5927
 IR Inten    --      3.5448                44.2458               886.3992

                     82                     83                     84
                      A                      A                      A
 Frequencies --   3046.1277              3049.5872              3082.4665
 Red. masses --      1.0360                 1.0371                 1.0317
 Frc consts  --      5.6637                 5.6828                 5.7755
 IR Inten    --     19.1205                22.0266                 5.5758

                     85                     86                     87
                      A                      A                      A
 Frequencies --   3085.7488              3129.5077              3129.8924
 Red. masses --      1.0325                 1.1000                 1.1015
 Frc consts  --      5.7924                 6.3471                 6.3574
 IR Inten    --      6.4815                20.0640                 1.1673

                     88                     89                     90
                      A                      A                      A
 Frequencies --   3163.2646              3164.8913              3179.0679
 Red. masses --      1.1052                 1.1055                 1.1076
 Frc consts  --      6.5156                 6.5244                 6.5950
 IR Inten    --      4.0775                16.0659                 0.0022

                     91                     92                     93
                      A                      A                      A
 Frequencies --   3180.3031              3193.1834              3194.1224
 Red. masses --      1.1066                 1.1068                 1.1074
 Frc consts  --      6.5944                 6.6490                 6.6569
 IR Inten    --      5.5690                 0.7793                 3.5661

                     94                     95                     96
                      A                      A                      A
 Frequencies --   3208.2170              3208.6269              3213.6868
 Red. masses --      1.0894                 1.0883                 1.0914
 Frc consts  --      6.6067                 6.6016                 6.6410
 IR Inten    --      2.9737                 2.0883                 0.0717

                     97                     98                     99
                      A                      A                      A
 Frequencies --   3215.3980              3232.1144              3235.0230
 Red. masses --      1.0910                 1.0977                 1.0973
 Frc consts  --      6.6457                 6.7562                 6.7659
 IR Inten    --      3.3184                 1.5111                 0.7513

 - Thermochemistry -
 -------------------
 Temperature   298.150 Kelvin.  Pressure   1.00000 Atm.
 Atom     1 has atomic number  6 and mass  12.00000

 Molecular mass:   215.15482 amu.
 Principal axes and moments of inertia in atomic units:
                           1         2         3
     Eigenvalues --  2827.437602984.722595080.03594
           X            1.00000   0.00307   0.00001
           Y           -0.00307   1.00000   0.00005
           Z           -0.00001  -0.00005   1.00000
 This molecule is an asymmetric top.
 Rotational symmetry number  1.
 Warning -- assumption of classical behavior for rotation
           may cause significant error
 Rotational temperatures (Kelvin)      0.03063     0.02902     0.01705
 Rotational constants (GHZ):           0.63830     0.60466     0.35526
 Zero-point vibrational energy     805938.5 (Joules/Mol)
                                  192.62391 (Kcal/Mol)
 Warning -- explicit consideration of  24 degrees of freedom as
           vibrations may cause significant error
 Vibrational temperatures:     40.53   130.48   187.74   210.66   242.38
          (Kelvin)            256.92   276.34   318.22   330.25   347.19
                              371.48   375.51   392.06   457.67   461.22
                              547.56   613.95   642.21   684.23   718.37
                              759.76   769.34   773.06   821.21   926.42
                              959.86   970.42  1111.34  1121.53  1133.09
                             1140.46  1213.90  1275.18  1327.65  1335.74
                             1362.52  1437.46  1453.74  1461.61  1474.39
                             1502.15  1505.14  1559.59  1592.49  1593.66
                             1603.93  1697.99  1704.00  1707.53  1721.28
                             1731.61  1735.25  1759.99  1779.54  1803.10
                             1841.55  1874.40  1982.29  2014.27  2036.47
                             2060.07  2070.89  2077.30  2116.35  2124.72
                             2125.47  2138.22  2143.87  2144.97  2157.65
                             2164.90  2167.06  2173.35  2186.15  2216.12
                             2285.53  2353.72  2398.89  2410.42  2427.20
                             2858.81  4382.69  4387.67  4434.98  4439.70
                             4502.66  4503.21  4551.23  4553.57  4573.96
                             4575.74  4594.27  4595.62  4615.90  4616.49
                             4623.77  4626.23  4650.29  4654.47

 Zero-point correction=                           0.306966 (Hartree/Particle)
 Thermal correction to Energy=                    0.321978
 Thermal correction to Enthalpy=                  0.322922
 Thermal correction to Gibbs Free Energy=         0.265914
 Sum of electronic and zero-point Energies=           -653.703345
 Sum of electronic and thermal Energies=              -653.688333
 Sum of electronic and thermal Enthalpies=            -653.687389
 Sum of electronic and thermal Free Energies=         -653.744397

                     E (Thermal)             CV                S
                      KCal/Mol        Cal/Mol-Kelvin    Cal/Mol-Kelvin
 Total                  202.044             59.651            119.984
 Electronic               0.000              0.000              0.000
 Translational            0.889              2.981             42.002
 Rotational               0.889              2.981             32.128
 Vibrational            200.267             53.689             45.855
 Vibration     1          0.593              1.984              5.954
 Vibration     2          0.602              1.956              3.645
 Vibration     3          0.612              1.923              2.939
 Vibration     4          0.617              1.907              2.718
 Vibration     5          0.625              1.881              2.453
 Vibration     6          0.629              1.869              2.343
 Vibration     7          0.634              1.851              2.208
 Vibration     8          0.648              1.809              1.949
 Vibration     9          0.652              1.796              1.883
 Vibration    10          0.658              1.777              1.793
 Vibration    11          0.667              1.749              1.674
 Vibration    12          0.669              1.744              1.655
 Vibration    13          0.675              1.724              1.580
 Vibration    14          0.705              1.639              1.320
 Vibration    15          0.706              1.634              1.307
 Vibration    16          0.750              1.512              1.037
 Vibration    17          0.788              1.412              0.869
 Vibration    18          0.806              1.369              0.807
 Vibration    19          0.832              1.304              0.722
 Vibration    20          0.855              1.252              0.660
 Vibration    21          0.883              1.188              0.592
 Vibration    22          0.890              1.173              0.577
 Vibration    23          0.892              1.168              0.571
 Vibration    24          0.927              1.094              0.503

 Normal termination of Gaussian 09 at Sun Dec 15 14:11:41 2024.
