 Gaussian 09, Revision E.01,
 Gaussian 09:  ES64L-G09RevE.01 30-Nov-2015

 -----------------------------
 # opt freq b3pw91/6-31+g(d,p)
 -----------------------------

 ----------
 [No Title]
 ----------
 Symbolic Z-matrix:
 Charge =  0 Multiplicity = 1

 SCF Done:  E(RB3PW91) =  -653.602281895     A.U. after   14 cycles
 SCF Done:  E(RB3PW91) =  -653.600224784     A.U. after   13 cycles
 SCF Done:  E(RB3PW91) =  -653.602519061     A.U. after   10 cycles
 SCF Done:  E(RB3PW91) =  -653.602693789     A.U. after   11 cycles
 SCF Done:  E(RB3PW91) =  -653.602736174     A.U. after   10 cycles
 SCF Done:  E(RB3PW91) =  -653.602743130     A.U. after   10 cycles
 SCF Done:  E(RB3PW91) =  -653.602744555     A.U. after   10 cycles
 SCF Done:  E(RB3PW91) =  -653.602742460     A.U. after   10 cycles
 SCF Done:  E(RB3PW91) =  -653.602745480     A.U. after   10 cycles
 SCF Done:  E(RB3PW91) =  -653.602745789     A.U. after    9 cycles
 SCF Done:  E(RB3PW91) =  -653.602745893     A.U. after    9 cycles
 Optimization completed.
    -- Stationary point found.
 Normal termination of Gaussian 09 at Sun Dec 15 13:29:58 2024.

 ----------------------------------------------------------------------
 #N Geom=AllCheck Guess=TCheck SCRF=Check GenChk RB3PW91/6-31+G(d,p) Fr
 eq
 ----------------------------------------------------------------------

 Structure from the checkpoint file:  "B3PW91DMAN.chk"
 ----------
 [No Title]
 ----------
 Charge =  0 Multiplicity = 1

                         Standard orientation:
 ---------------------------------------------------------------------
 Center     Atomic      Atomic             Coordinates (Angstroms)
 Number     Number       Type             X           Y           Z
 ---------------------------------------------------------------------
      1          6           0        0.681787    2.434356    0.232772
      2          6           0        2.081296    2.391374    0.377594
      3          6           0        2.749356    1.205451    0.211140
      4          6           0        2.029943    0.000195    0.000000
      5          6           0        0.592068    0.000057   -0.000000
      6          6           0       -0.069448    1.289413   -0.007378
      7          6           0        2.749590   -1.204921   -0.211139
      8          6           0        2.081759   -2.390974   -0.377593
      9          6           0        0.682259   -2.434226   -0.232771
     10          6           0       -0.069198   -1.289428    0.007378
     11          7           0       -1.448978    1.391169   -0.271439
     12          7           0       -1.448709   -1.391451    0.271437
     13          6           0       -1.890881    0.903425   -1.571175
     14          6           0       -2.118666    2.620615    0.093823
     15          6           0       -2.118156   -2.621030   -0.093817
     16          6           0       -1.890711   -0.903780    1.571167
     17          1           0        0.192189    3.401476    0.245792
     18          1           0        2.627048    3.313626    0.558547
     19          1           0        3.834841    1.165192    0.242965
     20          1           0        3.835067   -1.164452   -0.242963
     21          1           0        2.627689   -3.313121   -0.558545
     22          1           0        0.192847   -3.401440   -0.245790
     23          1           0       -1.335508    0.011584   -1.855416
     24          1           0       -2.954122    0.643530   -1.528475
     25          1           0       -1.748137    1.669235   -2.354440
     26          1           0       -1.876084    2.895937    1.124106
     27          1           0       -1.873221    3.474403   -0.564862
     28          1           0       -3.199932    2.458979    0.029838
     29          1           0       -1.875523   -2.896308   -1.124099
     30          1           0       -1.872542   -3.474766    0.564872
     31          1           0       -3.199453   -2.459603   -0.029829
     32          1           0       -1.335521   -0.011822    1.855399
     33          1           0       -2.954005   -0.644101    1.528462
     34          1           0       -1.747814   -1.669551    2.354442
 ---------------------------------------------------------------------

 SCF Done:  E(RB3PW91) =  -653.602745893     A.U. after    1 cycles

 The electronic state is 1-A.
 Alpha  occ. eigenvalues --  -14.33699 -14.33699 -10.21677 -10.21677 -10.19849
 Alpha  occ. eigenvalues --  -10.19849 -10.19184 -10.19184 -10.18928 -10.18654
 Alpha  occ. eigenvalues --  -10.17667 -10.17667 -10.17117 -10.17117 -10.17036
 Alpha  occ. eigenvalues --  -10.17035  -0.95551  -0.94018  -0.86464  -0.81749
 Alpha  occ. eigenvalues --   -0.76870  -0.74616  -0.72737  -0.71549  -0.71295
 Alpha  occ. eigenvalues --   -0.65689  -0.65643  -0.61323  -0.60094  -0.56111
 Alpha  occ. eigenvalues --   -0.52189  -0.51376  -0.50360  -0.48205  -0.47310
 Alpha  occ. eigenvalues --   -0.46727  -0.46087  -0.45462  -0.44428  -0.42363
 Alpha  occ. eigenvalues --   -0.41085  -0.40664  -0.39759  -0.39502  -0.39216
 Alpha  occ. eigenvalues --   -0.38188  -0.38117  -0.37312  -0.37144  -0.36891
 Alpha  occ. eigenvalues --   -0.34298  -0.33524  -0.32865  -0.29155  -0.26064
 Alpha  occ. eigenvalues --   -0.24485  -0.20337  -0.18930
 Alpha virt. eigenvalues --   -0.03721  -0.01654   0.01015   0.01872   0.02540
 Alpha virt. eigenvalues --    0.02562   0.03666   0.03901   0.04047   0.04701
 Alpha virt. eigenvalues --    0.05892   0.05986   0.06013   0.06502   0.06867

 Mulliken charges:
               1
     1  C   -0.289475
     2  C   -0.333690
     3  C   -0.329950
     4  C    0.187046
     5  C    0.067872
     6  C   -0.071761
     7  C   -0.329944
     8  C   -0.333703
     9  C   -0.289474
    10  C   -0.071762
    11  N    0.080569
    12  N    0.080570
    13  C   -0.255198
    14  C   -0.286480
    15  C   -0.286480
    16  C   -0.255199
    17  H    0.138280
    18  H    0.147008
    19  H    0.144809
    20  H    0.144809
    21  H    0.147008
    22  H    0.138279
    23  H    0.173834
    24  H    0.147309
    25  H    0.140230
    26  H    0.164862
    27  H    0.147930
    28  H    0.154268
    29  H    0.164862
    30  H    0.147930
    31  H    0.154268
    32  H    0.173834
    33  H    0.147309
    34  H    0.140230
 Sum of Mulliken charges =  -0.00000

 Dipole moment (field-independent basis, Debye):
    X=             -1.7762    Y=             -0.0002    Z=              0.0000  Tot=              1.7762
 Quadrupole moment (field-independent basis, Debye-Ang):
   XX=            -89.5702   YY=            -89.0496   ZZ=           -100.7120
   XY=             -0.0001   XZ=             -0.0002   YZ=              1.7094

  Exact polarizability: 220.310  -0.000 224.094  -0.001   6.861 121.991
 Approx polarizability: 347.733  -0.001 360.726  -0.002  22.409 181.874

                      1                      2                      3
                      A                      A                      A
 Frequencies --     53.9137               104.0637               123.1057
 Red. masses --      3.8022                 2.4714                 2.8781
 Frc consts  --      0.0065                 0.0158                 0.0257
 IR Inten    --      0.5803                 0.2680                 1.7057

                      4                      5                      6
                      A                      A                      A
 Frequencies --    125.9383               128.0024               153.3393
 Red. masses --      1.9914                 3.1557                 2.8814
 Frc consts  --      0.0186                 0.0305                 0.0399
 IR Inten    --      2.9309                 1.1147                 0.8501

                      7                      8                      9
                      A                      A                      A
 Frequencies --    177.0614               213.0199               241.5501
 Red. masses --      1.6121                 2.4389                 1.4489
 Frc consts  --      0.0298                 0.0652                 0.0498
 IR Inten    --      0.6343                 0.0026                 0.4650

                     10                     11                     12
                      A                      A                      A
 Frequencies --    269.0591               302.6944               313.9534
 Red. masses --      1.8283                 1.7417                 1.4864
 Frc consts  --      0.0780                 0.0940                 0.0863
 IR Inten    --      4.3839                 4.4061                 1.1987

                     13                     14                     15
                      A                      A                      A
 Frequencies --    317.2266               330.7866               353.7148
 Red. masses --      1.8496                 2.0047                 2.6214
 Frc consts  --      0.1097                 0.1292                 0.1932
 IR Inten    --      3.0623                 0.2750                 1.6140

                     16                     17                     18
                      A                      A                      A
 Frequencies --    365.9998               386.4486               445.3728
 Red. masses --      3.5557                 2.7105                 2.9655
 Frc consts  --      0.2806                 0.2385                 0.3466
 IR Inten    --      4.3246                 2.4342                 1.1153

                     19                     20                     21
                      A                      A                      A
 Frequencies --    476.9124               482.9334               534.3338
 Red. masses --      4.5788                 3.5112                 3.7416
 Frc consts  --      0.6136                 0.4825                 0.6294
 IR Inten    --      5.8577                 2.7110                 1.8685

                     22                     23                     24
                      A                      A                      A
 Frequencies --    534.4496               541.3925               548.3901
 Red. masses --      4.1168                 4.1009                 5.6293
 Frc consts  --      0.6928                 0.7082                 0.9974
 IR Inten    --      5.0903                 0.0225                 2.0969

                     25                     26                     27
                      A                      A                      A
 Frequencies --    637.4433               652.4624               674.6178
 Red. masses --      4.1889                 3.9368                 3.0267
 Frc consts  --      1.0028                 0.9874                 0.8116
 IR Inten    --      2.7276                 8.7745                 7.9650

                     28                     29                     30
                      A                      A                      A
 Frequencies --    766.0757               770.6456               773.6145
 Red. masses --      1.3322                 1.8321                 5.1138
 Frc consts  --      0.4606                 0.6411                 1.8032
 IR Inten    --      0.2118                64.3771                 0.0361

                     31                     32                     33
                      A                      A                      A
 Frequencies --    790.0925               825.3662               873.4340
 Red. masses --      5.2283                 2.8392                 1.4367
 Frc consts  --      1.9229                 1.1396                 0.6458
 IR Inten    --      2.8930                50.9198                 0.3951

                     34                     35                     36
                      A                      A                      A
 Frequencies --    891.1003               913.2877               960.9040
 Red. masses --      1.5025                 4.2793                 3.6147
 Frc consts  --      0.7030                 2.1030                 1.9664
 IR Inten    --      2.5175                 1.6792                35.0164

                     37                     38                     39
                      A                      A                      A
 Frequencies --    968.6365               978.2421              1055.3528
 Red. masses --      1.2911                 1.3058                 2.5040
 Frc consts  --      0.7137                 0.7363                 1.6432
 IR Inten    --      0.5826                 0.4603                87.8590

                     40                     41                     42
                      A                      A                      A
 Frequencies --   1060.5781              1081.0279              1081.1387
 Red. masses --      4.0239                 1.4011                 1.3926
 Frc consts  --      2.6667                 0.9647                 0.9591
 IR Inten    --     31.1015                16.6624                 7.5508

                     43                     44                     45
                      A                      A                      A
 Frequencies --   1111.1886              1113.7242              1129.9494
 Red. masses --      1.2846                 1.3007                 1.8174
 Frc consts  --      0.9345                 0.9506                 1.3672
 IR Inten    --     10.8307                 4.6540                 0.2112

                     46                     47                     48
                      A                      A                      A
 Frequencies --   1137.2550              1159.4711              1162.8531
 Red. masses --      1.6601                 1.4525                 1.4432
 Frc consts  --      1.2651                 1.1505                 1.1498
 IR Inten    --      3.5080                 0.8426                48.3215

                     49                     50                     51
                      A                      A                      A
 Frequencies --   1183.1343              1190.1971              1221.3157
 Red. masses --      1.2685                 1.2520                 1.6319
 Frc consts  --      1.0462                 1.0449                 1.4341
 IR Inten    --      0.7456                 2.2300                16.4888

                     52                     53                     54
                      A                      A                      A
 Frequencies --   1229.8427              1233.0957              1256.3773
 Red. masses --      2.7281                 1.8360                 3.7292
 Frc consts  --      2.4311                 1.6448                 3.4682
 IR Inten    --     13.6616                12.6559                 7.3356

                     55                     56                     57
                      A                      A                      A
 Frequencies --   1259.8749              1354.9409              1356.9447
 Red. masses --      2.6937                 3.4005                 1.9816
 Frc consts  --      2.5191                 3.6782                 2.1498
 IR Inten    --     26.5083                19.9384                30.6178

                     58                     59                     60
                      A                      A                      A
 Frequencies --   1391.4443              1394.0550              1422.8842
 Red. masses --      3.9229                 7.0970                 3.1582
 Frc consts  --      4.4749                 8.1262                 3.7673
 IR Inten    --     15.4457                22.8372                79.5752

                     61                     62                     63
                      A                      A                      A
 Frequencies --   1442.4569              1443.8082              1460.7375
 Red. masses --      1.1583                 1.1999                 1.5941
 Frc consts  --      1.4199                 1.4737                 2.0040
 IR Inten    --      0.7384                 3.9455                20.1361

                     64                     65                     66
                      A                      A                      A
 Frequencies --   1466.9123              1472.6225              1477.2184
 Red. masses --      1.3517                 1.1424                 1.2875
 Frc consts  --      1.7137                 1.4596                 1.6554
 IR Inten    --      2.7740                 3.1205                 2.1983

                     67                     68                     69
                      A                      A                      A
 Frequencies --   1477.8424              1486.8807              1492.2529
 Red. masses --      1.0580                 1.1452                 1.0547
 Frc consts  --      1.3614                 1.4917                 1.3838
 IR Inten    --      7.0998                 5.4272                37.5263

                     70                     71                     72
                      A                      A                      A
 Frequencies --   1494.2133              1501.8370              1506.5153
 Red. masses --      1.1661                 1.0553                 1.4347
 Frc consts  --      1.5339                 1.4023                 1.9185
 IR Inten    --     21.3796                 3.9761                17.7441

                     73                     74                     75
                      A                      A                      A
 Frequencies --   1523.4538              1527.4098              1562.5400
 Red. masses --      1.1558                 1.1314                 4.1239
 Frc consts  --      1.5805                 1.5552                 5.9323
 IR Inten    --     20.3820                34.4347                29.1236

                     76                     77                     78
                      A                      A                      A
 Frequencies --   1632.0451              1651.4663              1663.1859
 Red. masses --      5.8789                 5.7653                 6.1963
 Frc consts  --      9.2259                 9.2643                10.0986
 IR Inten    --    211.7803                 0.9766                12.9822

                     79                     80                     81
                      A                      A                      A
 Frequencies --   2951.7200              2952.1237              2967.0213
 Red. masses --      1.0581                 1.0580                 1.0586
 Frc consts  --      5.4313                 5.4323                 5.4904
 IR Inten    --    173.7355                17.4147               259.1788

                     82                     83                     84
                      A                      A                      A
 Frequencies --   2968.6992              3080.0298              3080.3290
 Red. masses --      1.0583                 1.0747                 1.0749
 Frc consts  --      5.4955                 6.0070                 6.0094
 IR Inten    --     47.6217                19.3267                48.3043

                     85                     86                     87
                      A                      A                      A
 Frequencies --   3088.5853              3088.6757              3135.9561
 Red. masses --      1.0827                 1.0826                 1.1028
 Frc consts  --      6.0852                 6.0853                 6.3896
 IR Inten    --     16.0291                64.4677                15.2992

                     88                     89                     90
                      A                      A                      A
 Frequencies --   3135.9795              3189.4462              3190.5529
 Red. masses --      1.1027                 1.0859                 1.0885
 Frc consts  --      6.3892                 6.5083                 6.5282
 IR Inten    --     22.0991                 5.6137                 0.4849

                     91                     92                     93
                      A                      A                      A
 Frequencies --   3190.9571              3191.0663              3207.0523
 Red. masses --      1.0931                 1.0955                 1.0956
 Frc consts  --      6.5579                 6.5728                 6.6392
 IR Inten    --      4.9912                10.2145                 9.8004

                     94                     95                     96
                      A                      A                      A
 Frequencies --   3209.0204              3230.9376              3231.0113
 Red. masses --      1.0948                 1.0918                 1.0916
 Frc consts  --      6.6426                 6.7151                 6.7142
 IR Inten    --     44.6778                20.2803                 1.0681

 - Thermochemistry -
 -------------------
 Temperature   298.150 Kelvin.  Pressure   1.00000 Atm.
 Atom     1 has atomic number  6 and mass  12.00000

 Molecular mass:   214.14700 amu.
 Principal axes and moments of inertia in atomic units:
                           1         2         3
     Eigenvalues --  2839.458912863.564195030.27218
           X            1.00000  -0.00003   0.00000
           Y            0.00003   1.00000  -0.00196
           Z           -0.00000   0.00196   1.00000
 This molecule is an asymmetric top.
 Rotational symmetry number  1.
 Warning -- assumption of classical behavior for rotation
           may cause significant error
 Rotational temperatures (Kelvin)      0.03050     0.03025     0.01722
 Rotational constants (GHZ):           0.63559     0.63024     0.35878
 Zero-point vibrational energy     771344.9 (Joules/Mol)
                                  184.35585 (Kcal/Mol)
 Warning -- explicit consideration of  24 degrees of freedom as
           vibrations may cause significant error
 Vibrational temperatures:     77.57   149.72   177.12   181.20   184.17
          (Kelvin)            220.62   254.75   306.49   347.54   387.12
                              435.51   451.71   456.42   475.93   508.92
                              526.59   556.01   640.79   686.17   694.83
                              768.79   768.95   778.94   789.01   917.14
                              938.75   970.62  1102.21  1108.79  1113.06
                             1136.77  1187.52  1256.68  1282.09  1314.02
                             1382.52  1393.65  1407.47  1518.42  1525.93
                             1555.36  1555.52  1598.75  1602.40  1625.74
                             1636.25  1668.22  1673.08  1702.26  1712.43
                             1757.20  1769.47  1774.15  1807.64  1812.68
                             1949.46  1952.34  2001.98  2005.73  2047.21
                             2075.37  2077.32  2101.67  2110.56  2118.77
                             2125.39  2126.28  2139.29  2147.02  2149.84
                             2160.81  2167.54  2191.91  2197.60  2248.14
                             2348.15  2376.09  2392.95  4246.86  4247.44
                             4268.88  4271.29  4431.47  4431.90  4443.78
                             4443.91  4511.94  4511.97  4588.90  4590.49
                             4591.07  4591.23  4614.23  4617.06  4648.59
                             4648.70

 Zero-point correction=                           0.293790 (Hartree/Particle)
 Thermal correction to Energy=                    0.308707
 Thermal correction to Enthalpy=                  0.309651
 Thermal correction to Gibbs Free Energy=         0.253231
 Sum of electronic and zero-point Energies=           -653.308956
 Sum of electronic and thermal Energies=              -653.294039
 Sum of electronic and thermal Enthalpies=            -653.293095
 Sum of electronic and thermal Free Energies=         -653.349515

                     E (Thermal)             CV                S
                      KCal/Mol        Cal/Mol-Kelvin    Cal/Mol-Kelvin
 Total                  193.717             59.391            118.747
 Electronic               0.000              0.000              0.000
 Translational            0.889              2.981             41.988
 Rotational               0.889              2.981             32.081
 Vibrational            191.939             53.429             44.678
 Vibration     1          0.596              1.976              4.668
 Vibration     2          0.605              1.946              3.377
 Vibration     3          0.610              1.930              3.051
 Vibration     4          0.611              1.927              3.007
 Vibration     5          0.611              1.925              2.976
 Vibration     6          0.619              1.899              2.630
 Vibration     7          0.628              1.871              2.359
 Vibration     8          0.644              1.821              2.018
 Vibration     9          0.658              1.777              1.791
 Vibration    10          0.673              1.730              1.602
 Vibration    11          0.694              1.669              1.402
 Vibration    12          0.702              1.647              1.341
 Vibration    13          0.704              1.641              1.324
 Vibration    14          0.713              1.614              1.256
 Vibration    15          0.730              1.568              1.150
 Vibration    16          0.739              1.542              1.097
 Vibration    17          0.755              1.499              1.014
 Vibration    18          0.805              1.371              0.810
 Vibration    19          0.833              1.301              0.718
 Vibration    20          0.839              1.288              0.702
 Vibration    21          0.889              1.174              0.578
 Vibration    22          0.889              1.174              0.577
 Vibration    23          0.896              1.159              0.562
 Vibration    24          0.904              1.143              0.548

 Optimization completed.
    -- Stationary point found.
 Normal termination of Gaussian 09 at Sun Dec 15 13:41:10 2024.
