 Gaussian 09, Revision E.01,
 Gaussian 09:  ES64L-G09RevE.01 30-Nov-2015

 --------------------------------
 # opt freq cam-b3lyp/6-31+g(d,p)
 --------------------------------

 ----------
 [No Title]
 ----------
 Symbolic Z-matrix:
 Charge =  1 Multiplicity = 1

 SCF Done:  E(RCAM-B3LYP) =  -653.879148192     A.U. after   15 cycles
 SCF Done:  E(RCAM-B3LYP) =  -653.879565948     A.U. after   12 cycles
 SCF Done:  E(RCAM-B3LYP) =  -653.879115445     A.U. after   12 cycles
 SCF Done:  E(RCAM-B3LYP) =  -653.879767509     A.U. after    8 cycles
 SCF Done:  E(RCAM-B3LYP) =  -653.879854054     A.U. after   11 cycles
 SCF Done:  E(RCAM-B3LYP) =  -653.879846472     A.U. after   10 cycles
 SCF Done:  E(RCAM-B3LYP) =  -653.879851591     A.U. after   10 cycles
 SCF Done:  E(RCAM-B3LYP) =  -653.879857184     A.U. after   10 cycles
 Optimization completed.
    -- Stationary point found.
 Normal termination of Gaussian 09 at Thu Jun 20 15:40:23 2024.

 ----------------------------------------------------------------------
 #N Geom=AllCheck Guess=TCheck SCRF=Check GenChk RCAM-B3LYP/6-31+G(d,p)
  Freq
 ----------------------------------------------------------------------

 Structure from the checkpoint file:  "camb3lypDMANyanggd3.chk"
 ----------
 [No Title]
 ----------
 Charge =  1 Multiplicity = 1

                         Standard orientation:
 ---------------------------------------------------------------------
 Center     Atomic      Atomic             Coordinates (Angstroms)
 Number     Number       Type             X           Y           Z
 ---------------------------------------------------------------------
      1          6           0        0.759468   -2.429034   -0.000024
      2          6           0        2.168268   -2.385607   -0.000053
      3          6           0        2.806790   -1.175843   -0.000068
      4          6           0        2.078863    0.041147   -0.000033
      5          6           0        0.650751    0.018104    0.000050
      6          6           0        0.034015   -1.269039    0.000022
      7          6           0        2.761711    1.283387   -0.000102
      8          6           0        2.070852    2.463340   -0.000107
      9          6           0        0.660864    2.449792   -0.000026
     10          6           0       -0.040237    1.271323    0.000065
     11          7           0       -1.439636   -1.333566   -0.000015
     12          7           0       -1.497912    1.274610    0.000189
     13          6           0       -1.998729   -1.951774   -1.233867
     14          6           0       -1.998780   -1.952148    1.233624
     15          6           0       -2.066086    1.884781    1.217345
     16          6           0       -2.066350    1.884495   -1.216983
     17          1           0        0.258862   -3.391888   -0.000047
     18          1           0        2.732818   -3.310767   -0.000089
     19          1           0        3.890911   -1.129306   -0.000122
     20          1           0        3.846734    1.279504   -0.000169
     21          1           0        2.597332    3.411086   -0.000171
     22          1           0        0.124699    3.393184   -0.000015
     23          1           0       -1.703270   -0.257853    0.000138
     24          1           0       -3.083840   -1.840160   -1.222186
     25          1           0       -1.580765   -1.446026   -2.103558
     26          1           0       -1.741407   -3.010570   -1.272104
     27          1           0       -3.083889   -1.840513    1.221941
     28          1           0       -1.580837   -1.446683    2.103490
     29          1           0       -1.741477   -3.010960    1.271535
     30          1           0       -1.635183    1.413547    2.102379
     31          1           0       -1.866852    2.961180    1.266646
     32          1           0       -3.148168    1.733871    1.221759
     33          1           0       -1.635618    1.413067   -2.101997
     34          1           0       -3.148428    1.733550   -1.221140
     35          1           0       -1.867168    2.960890   -1.266569
 ---------------------------------------------------------------------

 SCF Done:  E(RCAM-B3LYP) =  -653.879857184     A.U. after    1 cycles

 The electronic state is 1-A.
 Alpha  occ. eigenvalues --  -14.64662 -14.57754 -10.45386 -10.44997 -10.44996
 Alpha  occ. eigenvalues --  -10.43833 -10.42387 -10.41923 -10.41922 -10.41340
 Alpha  occ. eigenvalues --  -10.41098 -10.40069 -10.39923 -10.39853 -10.39388
 Alpha  occ. eigenvalues --  -10.39314  -1.23021  -1.16887  -1.09511  -1.04231
 Alpha  occ. eigenvalues --   -0.99604  -0.96671  -0.96586  -0.94501  -0.93048
 Alpha  occ. eigenvalues --   -0.90572  -0.86985  -0.84414  -0.82330  -0.79470
 Alpha  occ. eigenvalues --   -0.75685  -0.73790  -0.72920  -0.70697  -0.70438
 Alpha  occ. eigenvalues --   -0.69334  -0.66694  -0.66649  -0.66167  -0.64104
 Alpha  occ. eigenvalues --   -0.63430  -0.63258  -0.61942  -0.61471  -0.60794
 Alpha  occ. eigenvalues --   -0.60274  -0.59264  -0.59237  -0.58695  -0.57395
 Alpha  occ. eigenvalues --   -0.57153  -0.54439  -0.53823  -0.52807  -0.48085
 Alpha  occ. eigenvalues --   -0.45001  -0.43456  -0.40334
 Alpha virt. eigenvalues --   -0.14077  -0.10911  -0.09142  -0.07219  -0.06962
 Alpha virt. eigenvalues --   -0.06446  -0.06160  -0.05412  -0.04898  -0.04289
 Alpha virt. eigenvalues --   -0.04058  -0.03957  -0.02835  -0.02423  -0.02097

 Mulliken charges:
               1
     1  C   -0.000624
     2  C   -0.217956
     3  C   -0.035620
     4  C   -0.410295
     5  C    0.010027
     6  C   -0.190572
     7  C   -0.060177
     8  C   -0.210162
     9  C   -0.005496
    10  C   -0.204438
    11  N   -0.394271
    12  N   -0.449355
    13  C   -0.130680
    14  C   -0.130634
    15  C   -0.124460
    16  C   -0.124436
    17  H    0.151089
    18  H    0.170190
    19  H    0.165028
    20  H    0.162860
    21  H    0.168476
    22  H    0.151845
    23  H    0.483271
    24  H    0.193234
    25  H    0.199924
    26  H    0.197669
    27  H    0.193233
    28  H    0.199935
    29  H    0.197661
    30  H    0.172773
    31  H    0.177000
    32  H    0.172595
    33  H    0.172754
    34  H    0.172599
    35  H    0.177011
 Sum of Mulliken charges =   1.00000

 Dipole moment (field-independent basis, Debye):
    X=             -3.9825    Y=             -1.7973    Z=             -0.0002  Tot=              4.3693
 Quadrupole moment (field-independent basis, Debye-Ang):
   XX=            -63.8786   YY=            -65.0718   ZZ=            -92.2092
   XY=              3.4019   XZ=             -0.0007   YZ=              0.0007

  Exact polarizability: 191.072  -0.817 206.825  -0.003   0.001 109.119
 Approx polarizability: 226.173  -0.751 263.293  -0.004  -0.000 137.807

                      1                      2                      3
                      A                      A                      A
 Frequencies --     29.2519                84.8225               133.2228
 Red. masses --      3.5210                 2.6727                 3.3109
 Frc consts  --      0.0018                 0.0113                 0.0346
 IR Inten    --      0.0920                 0.1277                 0.3995

                      4                      5                      6
                      A                      A                      A
 Frequencies --    140.4136               168.6003               182.5518
 Red. masses --      2.3432                 2.7807                 3.0134
 Frc consts  --      0.0272                 0.0466                 0.0592
 IR Inten    --      0.3094                16.3026                 3.6317

                      7                      8                      9
                      A                      A                      A
 Frequencies --    196.3756               219.4591               229.3221
 Red. masses --      3.4573                 1.1595                 1.3436
 Frc consts  --      0.0786                 0.0329                 0.0416
 IR Inten    --      0.3478                 0.1269                 0.5654

                     10                     11                     12
                      A                      A                      A
 Frequencies --    240.4294               256.6145               261.3870
 Red. masses --      1.0944                 1.2064                 2.1616
 Frc consts  --      0.0373                 0.0468                 0.0870
 IR Inten    --      0.0187                 3.1662                 1.3806

                     13                     14                     15
                      A                      A                      A
 Frequencies --    275.8104               323.5010               326.5872
 Red. masses --      2.2505                 2.7612                 3.3159
 Frc consts  --      0.1009                 0.1703                 0.2084
 IR Inten    --      0.1073                 2.2778                 0.2272

                     16                     17                     18
                      A                      A                      A
 Frequencies --    388.1177               433.6915               452.0323
 Red. masses --      3.6704                 3.1326                 2.9042
 Frc consts  --      0.3258                 0.3471                 0.3496
 IR Inten    --     13.1098                23.6669                 0.3278

                     19                     20                     21
                      A                      A                      A
 Frequencies --    487.2675               505.1362               536.5859
 Red. masses --      3.2935                 5.3852                 4.0064
 Frc consts  --      0.4607                 0.8096                 0.6797
 IR Inten    --      0.5973                18.0686                14.7264

                     22                     23                     24
                      A                      A                      A
 Frequencies --    542.8668               546.7780               579.3466
 Red. masses --      5.3188                 3.5382                 3.8142
 Frc consts  --      0.9235                 0.6232                 0.7543
 IR Inten    --      1.0756                 0.0195                 4.4731

                     25                     26                     27
                      A                      A                      A
 Frequencies --    656.1020               679.8595               685.3676
 Red. masses --      3.9860                 3.0110                 3.5815
 Frc consts  --      1.0109                 0.8200                 0.9912
 IR Inten    --      0.0736                 0.1623                57.7291

                     28                     29                     30
                      A                      A                      A
 Frequencies --    782.9728               798.0234               802.1001
 Red. masses --      4.7442                 2.0192                 5.2990
 Frc consts  --      1.7136                 0.7577                 2.0086
 IR Inten    --      1.0633                67.7741                 0.5220

                     31                     32                     33
                      A                      A                      A
 Frequencies --    802.8792               866.4212               899.0629
 Red. masses --      1.2963                 2.4064                 3.9560
 Frc consts  --      0.4923                 1.0643                 1.8840
 IR Inten    --      0.3097                26.5856                37.0925

                     34                     35                     36
                      A                      A                      A
 Frequencies --    935.0226               951.1472               968.7927
 Red. masses --      3.6359                 1.3913                 1.4528
 Frc consts  --      1.8729                 0.7416                 0.8034
 IR Inten    --     33.2151                 0.2192                 1.8269

                     37                     38                     39
                      A                      A                      A
 Frequencies --   1024.1484              1031.9974              1035.1549
 Red. masses --      1.3546                 3.2208                 1.4160
 Frc consts  --      0.8371                 2.0210                 0.8940
 IR Inten    --      0.0259                32.3962                 0.4677

                     40                     41                     42
                      A                      A                      A
 Frequencies --   1037.7940              1058.0723              1058.4909
 Red. masses --      1.8100                 1.6782                 3.6831
 Frc consts  --      1.1485                 1.1069                 2.4313
 IR Inten    --     13.5107                15.3005                15.2934

                     43                     44                     45
                      A                      A                      A
 Frequencies --   1095.3838              1118.9708              1120.9493
 Red. masses --      1.2091                 2.1089                 1.2455
 Frc consts  --      0.8548                 1.5557                 0.9221
 IR Inten    --      0.3854                 6.7417                 1.6383

                     46                     47                     48
                      A                      A                      A
 Frequencies --   1123.7956              1190.4615              1199.1006
 Red. masses --      1.7918                 1.2917                 1.4057
 Frc consts  --      1.3332                 1.0786                 1.1908
 IR Inten    --      2.9960                 0.1452                 3.1952

                     49                     50                     51
                      A                      A                      A
 Frequencies --   1200.6922              1208.5677              1219.6882
 Red. masses --      2.2745                 1.6021                 1.3018
 Frc consts  --      1.9319                 1.3788                 1.1410
 IR Inten    --      6.3140                 2.5688                15.0951

                     52                     53                     54
                      A                      A                      A
 Frequencies --   1223.8547              1238.9510              1250.8451
 Red. masses --      3.0884                 1.5729                 1.7549
 Frc consts  --      2.7255                 1.4225                 1.6177
 IR Inten    --     12.3660                23.0588                21.6662

                     55                     56                     57
                      A                      A                      A
 Frequencies --   1255.4535              1295.6557              1322.0510
 Red. masses --      1.8830                 2.1986                 2.4557
 Frc consts  --      1.7486                 2.1746                 2.5288
 IR Inten    --     29.8111                 1.0074                16.7367

                     58                     59                     60
                      A                      A                      A
 Frequencies --   1395.6275              1400.1617              1426.0747
 Red. masses --      3.5506                 2.4081                 5.1807
 Frc consts  --      4.0746                 2.7815                 6.2075
 IR Inten    --      3.2054                91.3586                 9.6693

                     61                     62                     63
                      A                      A                      A
 Frequencies --   1455.7196              1460.2466              1461.7431
 Red. masses --      1.1473                 1.1466                 1.3395
 Frc consts  --      1.4324                 1.4405                 1.6863
 IR Inten    --      1.3422                 8.4784                53.9815

                     64                     65                     66
                      A                      A                      A
 Frequencies --   1487.1637              1489.7451              1492.4824
 Red. masses --      1.4429                 1.0428                 1.3751
 Frc consts  --      1.8802                 1.3635                 1.8047
 IR Inten    --      0.5405                 0.0177                 4.2127

                     67                     68                     69
                      A                      A                      A
 Frequencies --   1498.6090              1502.4962              1505.7260
 Red. masses --      1.0490                 1.0431                 1.1150
 Frc consts  --      1.3880                 1.3874                 1.4894
 IR Inten    --      2.3449                 5.0447                 7.3708

                     70                     71                     72
                      A                      A                      A
 Frequencies --   1512.9039              1517.6480              1519.8162
 Red. masses --      1.0447                 1.0610                 1.1704
 Frc consts  --      1.4088                 1.4398                 1.5929
 IR Inten    --     13.3602                 6.0760                11.3192

                     73                     74                     75
                      A                      A                      A
 Frequencies --   1526.0534              1532.1201              1566.0250
 Red. masses --      1.7707                 1.1529                 2.8094
 Frc consts  --      2.4296                 1.5946                 4.0594
 IR Inten    --     11.6834                25.8407               161.7712

                     76                     77                     78
                      A                      A                      A
 Frequencies --   1618.2276              1665.6647              1677.1366
 Red. masses --      1.6760                 6.7547                 1.0913
 Frc consts  --      2.5858                11.0416                 1.8085
 IR Inten    --    272.0359                 3.2961                 5.7141

                     79                     80                     81
                      A                      A                      A
 Frequencies --   1700.0963              1721.4411              2147.0498
 Red. masses --      4.4328                 5.9894                 1.1193
 Frc consts  --      7.5488                10.4572                 3.0400
 IR Inten    --     40.2532                51.8159              1230.5130

                     82                     83                     84
                      A                      A                      A
 Frequencies --   3061.1318              3064.8717              3099.2178
 Red. masses --      1.0364                 1.0377                 1.0318
 Frc consts  --      5.7221                 5.7432                 5.8391
 IR Inten    --     17.4499                18.5630                 3.7446

                     85                     86                     87
                      A                      A                      A
 Frequencies --   3103.0457              3139.7674              3140.0263
 Red. masses --      1.0326                 1.1016                 1.1000
 Frc consts  --      5.8581                 6.3984                 6.3903
 IR Inten    --      4.3343                 1.3627                19.5995

                     88                     89                     90
                      A                      A                      A
 Frequencies --   3170.8855              3172.8737              3192.3491
 Red. masses --      1.1060                 1.1064                 1.1083
 Frc consts  --      6.5517                 6.5624                 6.6546
 IR Inten    --      4.0452                16.6627                 0.0072

                     91                     92                     93
                      A                      A                      A
 Frequencies --   3194.5564              3204.3800              3205.3237
 Red. masses --      1.1074                 1.1077                 1.1083
 Frc consts  --      6.6588                 6.7015                 6.7090
 IR Inten    --      4.6077                 0.4844                 2.1535

                     94                     95                     96
                      A                      A                      A
 Frequencies --   3221.4641              3221.9409              3226.0371
 Red. masses --      1.0898                 1.0893                 1.0923
 Frc consts  --      6.6637                 6.6623                 6.6978
 IR Inten    --      1.1665                 3.4007                 0.0287

                     97                     98                     99
                      A                      A                      A
 Frequencies --   3228.4352              3244.6355              3247.3483
 Red. masses --      1.0918                 1.0981                 1.0978
 Frc consts  --      6.7047                 6.8114                 6.8207
 IR Inten    --      2.7917                 0.8053                 0.3105

 - Thermochemistry -
 -------------------
 Temperature   298.150 Kelvin.  Pressure   1.00000 Atm.
 Atom     1 has atomic number  6 and mass  12.00000

 Molecular mass:   215.15482 amu.
 Principal axes and moments of inertia in atomic units:
                           1         2         3
     Eigenvalues --  2827.720302976.700945072.89052
           X            0.99999   0.00389   0.00003
           Y           -0.00389   0.99999  -0.00003
           Z           -0.00003   0.00003   1.00000
 This molecule is an asymmetric top.
 Rotational symmetry number  1.
 Warning -- assumption of classical behavior for rotation
           may cause significant error
 Rotational temperatures (Kelvin)      0.03063     0.02910     0.01707
 Rotational constants (GHZ):           0.63823     0.60629     0.35576
 Zero-point vibrational energy     814036.5 (Joules/Mol)
                                  194.55938 (Kcal/Mol)
 Warning -- explicit consideration of  24 degrees of freedom as
           vibrations may cause significant error
 Vibrational temperatures:     42.09   122.04   191.68   202.02   242.58
          (Kelvin)            262.65   282.54   315.75   329.94   345.92
                              369.21   376.08   396.83   465.45   469.89
                              558.41   623.98   650.37   701.07   726.78
                              772.03   781.06   786.69   833.55   943.98
                              978.17   986.09  1126.52  1148.18  1154.04
                             1155.16  1246.59  1293.55  1345.29  1368.49
                             1393.87  1473.52  1484.81  1489.36  1493.15
                             1522.33  1522.93  1576.01  1609.95  1612.79
                             1616.89  1712.81  1725.24  1727.53  1738.86
                             1754.86  1760.85  1782.57  1799.68  1806.32
                             1864.16  1902.13  2007.99  2014.52  2051.80
                             2094.45  2100.97  2103.12  2139.69  2143.41
                             2147.35  2156.16  2161.75  2166.40  2176.73
                             2183.55  2186.67  2195.65  2204.38  2253.16
                             2328.27  2396.52  2413.02  2446.06  2476.77
                             3089.12  4404.28  4409.66  4459.08  4464.59
                             4517.42  4517.79  4562.19  4565.05  4593.07
                             4596.25  4610.38  4611.74  4634.96  4635.65
                             4641.54  4644.99  4668.30  4672.20

 Zero-point correction=                           0.310050 (Hartree/Particle)
 Thermal correction to Energy=                    0.324912
 Thermal correction to Enthalpy=                  0.325856
 Thermal correction to Gibbs Free Energy=         0.269066
 Sum of electronic and zero-point Energies=           -653.569807
 Sum of electronic and thermal Energies=              -653.554945
 Sum of electronic and thermal Enthalpies=            -653.554001
 Sum of electronic and thermal Free Energies=         -653.610791

                     E (Thermal)             CV                S
                      KCal/Mol        Cal/Mol-Kelvin    Cal/Mol-Kelvin
 Total                  203.885             58.844            119.525
 Electronic               0.000              0.000              0.000
 Translational            0.889              2.981             42.002
 Rotational               0.889              2.981             32.124
 Vibrational            202.108             52.883             45.399
 Vibration     1          0.593              1.984              5.880
 Vibration     2          0.601              1.960              3.776
 Vibration     3          0.613              1.920              2.899
 Vibration     4          0.615              1.913              2.798
 Vibration     5          0.625              1.881              2.451
 Vibration     6          0.630              1.864              2.302
 Vibration     7          0.636              1.845              2.167
 Vibration     8          0.647              1.811              1.964
 Vibration     9          0.652              1.796              1.884
 Vibration    10          0.658              1.779              1.800
 Vibration    11          0.666              1.752              1.685
 Vibration    12          0.669              1.743              1.652
 Vibration    13          0.677              1.718              1.560
 Vibration    14          0.708              1.628              1.292
 Vibration    15          0.710              1.622              1.277
 Vibration    16          0.756              1.496              1.007
 Vibration    17          0.794              1.397              0.847
 Vibration    18          0.811              1.356              0.790
 Vibration    19          0.843              1.278              0.691
 Vibration    20          0.860              1.239              0.645
 Vibration    21          0.892              1.169              0.573
 Vibration    22          0.898              1.155              0.559
 Vibration    23          0.902              1.147              0.551
 Vibration    24          0.936              1.076              0.487

 Optimization completed.
    -- Stationary point found.
 Normal termination of Gaussian 09 at Thu Jun 20 15:47:07 2024.
