 Gaussian 09, Revision E.01,
 Gaussian 09:  ES64L-G09RevE.01 30-Nov-2015

 --------------------------------
 # opt freq cam-b3lyp/6-31+g(d,p)
 --------------------------------

 ----------
 [No Title]
 ----------
 Symbolic Z-matrix:
 Charge =  0 Multiplicity = 1

 SCF Done:  E(RCAM-B3LYP) =  -653.475149402     A.U. after   16 cycles
 SCF Done:  E(RCAM-B3LYP) =  -653.474829659     A.U. after   14 cycles
 SCF Done:  E(RCAM-B3LYP) =  -653.475559921     A.U. after   10 cycles
 SCF Done:  E(RCAM-B3LYP) =  -653.474443354     A.U. after   14 cycles
 SCF Done:  E(RCAM-B3LYP) =  -653.475809193     A.U. after    9 cycles
 SCF Done:  E(RCAM-B3LYP) =  -653.475825730     A.U. after   12 cycles
 SCF Done:  E(RCAM-B3LYP) =  -653.475830076     A.U. after   11 cycles
 SCF Done:  E(RCAM-B3LYP) =  -653.475830827     A.U. after   10 cycles
 SCF Done:  E(RCAM-B3LYP) =  -653.475830659     A.U. after   10 cycles
 SCF Done:  E(RCAM-B3LYP) =  -653.475830981     A.U. after    9 cycles
 Optimization completed.
    -- Stationary point found.
 Normal termination of Gaussian 09 at Thu Jun 20 14:24:31 2024.

 ----------------------------------------------------------------------
 #N Geom=AllCheck Guess=TCheck SCRF=Check GenChk RCAM-B3LYP/6-31+G(d,p)
  Freq
 ----------------------------------------------------------------------

 Structure from the checkpoint file:  "camb3lypDMANgd3.chk"
 ----------
 [No Title]
 ----------
 Charge =  0 Multiplicity = 1

                         Standard orientation:
 ---------------------------------------------------------------------
 Center     Atomic      Atomic             Coordinates (Angstroms)
 Number     Number       Type             X           Y           Z
 ---------------------------------------------------------------------
      1          6           0        0.687992    2.430874    0.203342
      2          6           0        2.089664    2.390535    0.331336
      3          6           0        2.750751    1.205470    0.185714
      4          6           0        2.027854   -0.001627    0.000014
      5          6           0        0.598072   -0.000471    0.000031
      6          6           0       -0.062414    1.288626   -0.005438
      7          6           0        2.748794   -1.209888   -0.185717
      8          6           0        2.085789   -2.393877   -0.331364
      9          6           0        0.684054   -2.431952   -0.203362
     10          6           0       -0.064500   -1.288498    0.005471
     11          7           0       -1.450472    1.387765   -0.239902
     12          7           0       -1.452716   -1.385408    0.239927
     13          6           0       -1.901705    0.939909   -1.550241
     14          6           0       -2.115342    2.608467    0.161849
     15          6           0       -2.119560   -2.604988   -0.161954
     16          6           0       -1.903218   -0.936991    1.550328
     17          1           0        0.198695    3.396335    0.213541
     18          1           0        2.637021    3.314342    0.490526
     19          1           0        3.834937    1.161676    0.215859
     20          1           0        3.833050   -1.167846   -0.215884
     21          1           0        2.631649   -3.318564   -0.490589
     22          1           0        0.193198   -3.396620   -0.213591
     23          1           0       -1.362046    0.047982   -1.858097
     24          1           0       -2.967115    0.693812   -1.509485
     25          1           0       -1.751221    1.723437   -2.312540
     26          1           0       -1.848757    2.867805    1.188971
     27          1           0       -1.887540    3.471645   -0.488128
     28          1           0       -3.196047    2.443931    0.120782
     29          1           0       -1.853409   -2.864637   -1.189110
     30          1           0       -1.893140   -3.468606    0.487921
     31          1           0       -3.199999   -2.438716   -0.120852
     32          1           0       -1.362095   -0.046001    1.858319
     33          1           0       -2.968222   -0.689138    1.509601
     34          1           0       -1.754027   -1.720877    2.312514
 ---------------------------------------------------------------------

 SCF Done:  E(RCAM-B3LYP) =  -653.475830981     A.U. after    1 cycles

 The electronic state is 1-A.
 Alpha  occ. eigenvalues --  -14.41151 -14.41151 -10.30118 -10.30118 -10.28246
 Alpha  occ. eigenvalues --  -10.28246 -10.27595 -10.27595 -10.27340 -10.27131
 Alpha  occ. eigenvalues --  -10.26229 -10.26228 -10.25587 -10.25585 -10.25550
 Alpha  occ. eigenvalues --  -10.25550  -1.03173  -1.01499  -0.94599  -0.89775
 Alpha  occ. eigenvalues --   -0.84638  -0.82389  -0.80348  -0.78978  -0.78732
 Alpha  occ. eigenvalues --   -0.72972  -0.72972  -0.68732  -0.67317  -0.63147
 Alpha  occ. eigenvalues --   -0.59109  -0.58091  -0.57307  -0.54862  -0.54236
 Alpha  occ. eigenvalues --   -0.53278  -0.52593  -0.52094  -0.50943  -0.48878
 Alpha  occ. eigenvalues --   -0.47767  -0.47146  -0.46196  -0.45886  -0.45500
 Alpha  occ. eigenvalues --   -0.44720  -0.44413  -0.43505  -0.43279  -0.43176
 Alpha  occ. eigenvalues --   -0.40361  -0.39778  -0.39155  -0.34888  -0.31666
 Alpha  occ. eigenvalues --   -0.29422  -0.25734  -0.23752
 Alpha virt. eigenvalues --    0.00606   0.02708   0.02933   0.03763   0.04235
 Alpha virt. eigenvalues --    0.04840   0.05505   0.05627   0.06418   0.06980
 Alpha virt. eigenvalues --    0.07706   0.07708   0.07739   0.08068   0.08755

 Mulliken charges:
               1
     1  C   -0.379406
     2  C   -0.340513
     3  C   -0.244421
     4  C    0.015296
     5  C    0.066323
     6  C    0.152120
     7  C   -0.244501
     8  C   -0.340405
     9  C   -0.379302
    10  C    0.152124
    11  N   -0.058612
    12  N   -0.058630
    13  C   -0.184651
    14  C   -0.240136
    15  C   -0.240133
    16  C   -0.184639
    17  H    0.121516
    18  H    0.129667
    19  H    0.126454
    20  H    0.126455
    21  H    0.129667
    22  H    0.121516
    23  H    0.164864
    24  H    0.138270
    25  H    0.132527
    26  H    0.155435
    27  H    0.140793
    28  H    0.145211
    29  H    0.155438
    30  H    0.140791
    31  H    0.145212
    32  H    0.164867
    33  H    0.138275
    34  H    0.132527
 Sum of Mulliken charges =  -0.00000

 Dipole moment (field-independent basis, Debye):
    X=             -1.4860    Y=              0.0011    Z=             -0.0000  Tot=              1.4860
 Quadrupole moment (field-independent basis, Debye-Ang):
   XX=            -91.0671   YY=            -90.3935   ZZ=           -101.8499
   XY=              0.0006   XZ=              0.0013   YZ=              1.7547

  Exact polarizability: 213.819   0.005 218.751   0.005   6.150 120.591
 Approx polarizability: 253.352   0.011 266.540   0.010  12.716 151.803

                      1                      2                      3
                      A                      A                      A
 Frequencies --     50.9969               101.9685               120.3772
 Red. masses --      3.7715                 2.4964                 1.9249
 Frc consts  --      0.0058                 0.0153                 0.0164
 IR Inten    --      0.5107                 0.3896                 3.3908

                      4                      5                      6
                      A                      A                      A
 Frequencies --    127.3487               129.8518               158.2020
 Red. masses --      2.9003                 3.0984                 2.8423
 Frc consts  --      0.0277                 0.0308                 0.0419
 IR Inten    --      0.0636                 1.1244                 0.9808

                      7                      8                      9
                      A                      A                      A
 Frequencies --    181.8471               216.8711               245.8080
 Red. masses --      1.6281                 2.3995                 1.4891
 Frc consts  --      0.0317                 0.0665                 0.0530
 IR Inten    --      0.7134                 0.0106                 0.7815

                     10                     11                     12
                      A                      A                      A
 Frequencies --    270.5612               307.6997               317.0560
 Red. masses --      1.8602                 1.5073                 1.4372
 Frc consts  --      0.0802                 0.0841                 0.0851
 IR Inten    --      4.8386                 2.7397                 0.8027

                     13                     14                     15
                      A                      A                      A
 Frequencies --    323.2652               331.6537               359.0212
 Red. masses --      2.0663                 2.0575                 2.7989
 Frc consts  --      0.1272                 0.1333                 0.2126
 IR Inten    --      2.3172                 0.2561                 1.0405

                     16                     17                     18
                      A                      A                      A
 Frequencies --    377.1958               392.2556               451.1906
 Red. masses --      3.5315                 2.7460                 2.9144
 Frc consts  --      0.2960                 0.2489                 0.3496
 IR Inten    --      4.3170                 2.5204                 1.6174

                     19                     20                     21
                      A                      A                      A
 Frequencies --    484.4158               493.4222               543.2409
 Red. masses --      4.6533                 3.4215                 4.1614
 Frc consts  --      0.6434                 0.4908                 0.7236
 IR Inten    --      5.1467                 2.4056                 5.8973

                     22                     23                     24
                      A                      A                      A
 Frequencies --    545.8633               548.5740               557.6357
 Red. masses --      3.7950                 3.9011                 5.6158
 Frc consts  --      0.6662                 0.6917                 1.0289
 IR Inten    --      1.1390                 0.1770                 2.4918

                     25                     26                     27
                      A                      A                      A
 Frequencies --    646.6152               667.8271               688.3116
 Red. masses --      4.2093                 3.7896                 2.8691
 Frc consts  --      1.0369                 0.9958                 0.8009
 IR Inten    --      3.5490                 9.2738                 7.1316

                     28                     29                     30
                      A                      A                      A
 Frequencies --    784.2069               784.2224               790.5484
 Red. masses --      5.1353                 1.3409                 1.6720
 Frc consts  --      1.8607                 0.4859                 0.6157
 IR Inten    --      0.4589                 0.0347                72.2863

                     31                     32                     33
                      A                      A                      A
 Frequencies --    800.6160               854.1707               902.3037
 Red. masses --      5.2586                 3.3043                 1.4711
 Frc consts  --      1.9860                 1.4204                 0.7056
 IR Inten    --      3.4045                40.8535                 0.0488

                     34                     35                     36
                      A                      A                      A
 Frequencies --    918.4209               922.5056               970.8025
 Red. masses --      1.5176                 4.0851                 3.5238
 Frc consts  --      0.7542                 2.0483                 1.9567
 IR Inten    --      1.2847                 1.6298                38.0732

                     37                     38                     39
                      A                      A                      A
 Frequencies --    997.8630              1007.3888              1064.7220
 Red. masses --      1.3148                 1.3321                 2.4877
 Frc consts  --      0.7713                 0.7965                 1.6616
 IR Inten    --      0.3292                 0.6853                93.6109

                     40                     41                     42
                      A                      A                      A
 Frequencies --   1067.9350              1091.5072              1091.6857
 Red. masses --      4.1296                 1.4031                 1.3954
 Frc consts  --      2.7749                 0.9849                 0.9798
 IR Inten    --     31.2230                17.0913                 6.0586

                     43                     44                     45
                      A                      A                      A
 Frequencies --   1123.9954              1126.1189              1141.2478
 Red. masses --      1.2925                 1.3113                 1.7942
 Frc consts  --      0.9621                 0.9798                 1.3768
 IR Inten    --     10.8066                 3.8192                 0.2668

                     46                     47                     48
                      A                      A                      A
 Frequencies --   1148.4529              1177.1346              1180.0634
 Red. masses --      1.7061                 1.4711                 1.4462
 Frc consts  --      1.3258                 1.2010                 1.1866
 IR Inten    --      3.4858                 1.8622                36.9225

                     49                     50                     51
                      A                      A                      A
 Frequencies --   1186.4667              1202.3147              1226.3967
 Red. masses --      1.3790                 1.2406                 2.6397
 Frc consts  --      1.1437                 1.0566                 2.3392
 IR Inten    --      2.2085                 2.2625                15.6504

                     52                     53                     54
                      A                      A                      A
 Frequencies --   1238.9174              1249.2771              1271.5797
 Red. masses --      1.4885                 1.8660                 3.7495
 Frc consts  --      1.3462                 1.7159                 3.5720
 IR Inten    --      6.0855                11.6696                 6.7535

                     55                     56                     57
                      A                      A                      A
 Frequencies --   1274.1991              1357.9513              1372.4653
 Red. masses --      3.0378                 3.1368                 1.9826
 Frc consts  --      2.9059                 3.4080                 2.2003
 IR Inten    --     34.0939                10.2463                37.7370

                     58                     59                     60
                      A                      A                      A
 Frequencies --   1399.3562              1402.6087              1439.9585
 Red. masses --      3.4224                 7.5482                 2.9804
 Frc consts  --      3.9486                 8.7492                 3.6410
 IR Inten    --     21.1806                17.1649                91.1842

                     61                     62                     63
                      A                      A                      A
 Frequencies --   1458.7921              1460.0779              1478.6673
 Red. masses --      1.1644                 1.2204                 1.4665
 Frc consts  --      1.4600                 1.5329                 1.8891
 IR Inten    --      0.6195                 6.0693                11.0111

                     64                     65                     66
                      A                      A                      A
 Frequencies --   1484.1418              1486.9426              1491.9804
 Red. masses --      1.2852                 1.1968                 1.0522
 Frc consts  --      1.6679                 1.5590                 1.3800
 IR Inten    --      1.5228                 4.4942                 9.3459

                     67                     68                     69
                      A                      A                      A
 Frequencies --   1492.2004              1501.0738              1506.1344
 Red. masses --      1.3004                 1.1145                 1.0586
 Frc consts  --      1.7060                 1.4795                 1.4149
 IR Inten    --      2.0563                 3.3112                39.7953

                     70                     71                     72
                      A                      A                      A
 Frequencies --   1508.0379              1513.5689              1522.8198
 Red. masses --      1.1361                 1.0594                 1.6168
 Frc consts  --      1.5222                 1.4299                 2.2091
 IR Inten    --     18.1929                 1.0075                19.2366

                     73                     74                     75
                      A                      A                      A
 Frequencies --   1535.5928              1539.1217              1580.5971
 Red. masses --      1.1577                 1.1195                 4.1320
 Frc consts  --      1.6084                 1.5625                 6.0821
 IR Inten    --     20.7030                36.2649                22.2429

                     76                     77                     78
                      A                      A                      A
 Frequencies --   1661.0769              1682.0277              1697.3380
 Red. masses --      6.2251                 5.6432                 6.2990
 Frc consts  --     10.1199                 9.4068                10.6920
 IR Inten    --    206.6307                 0.0258                14.1328

                     79                     80                     81
                      A                      A                      A
 Frequencies --   2972.6601              2972.9269              2983.9671
 Red. masses --      1.0587                 1.0587                 1.0598
 Frc consts  --      5.5122                 5.5128                 5.5599
 IR Inten    --    137.7343                10.3816               247.9622

                     82                     83                     84
                      A                      A                      A
 Frequencies --   2985.6458              3095.4804              3095.5478
 Red. masses --      1.0595                 1.0751                 1.0755
 Frc consts  --      5.5647                 6.0698                 6.0723
 IR Inten    --     38.0308                19.5791                37.1143

                     85                     86                     87
                      A                      A                      A
 Frequencies --   3102.6795              3102.7476              3148.6307
 Red. masses --      1.0829                 1.0826                 1.1034
 Frc consts  --      6.1418                 6.1407                 6.4450
 IR Inten    --     14.3981                70.8713                18.8865

                     88                     89                     90
                      A                      A                      A
 Frequencies --   3148.6335              3203.3001              3204.3297
 Red. masses --      1.1034                 1.0868                 1.0955
 Frc consts  --      6.4451                 6.5706                 6.6273
 IR Inten    --     18.4626                 4.1553                 4.8652

                     91                     92                     93
                      A                      A                      A
 Frequencies --   3204.6337              3205.4415              3221.1127
 Red. masses --      1.0956                 1.0870                 1.0965
 Frc consts  --      6.6289                 6.5807                 6.7031
 IR Inten    --     11.1750                 0.7747                 9.6209

                     94                     95                     96
                      A                      A                      A
 Frequencies --   3223.6173              3249.1732              3249.1818
 Red. masses --      1.0959                 1.0917                 1.0918
 Frc consts  --      6.7095                 6.7906                 6.7910
 IR Inten    --     37.6266                 6.5922                 9.7861

 - Thermochemistry -
 -------------------
 Temperature   298.150 Kelvin.  Pressure   1.00000 Atm.
 Atom     1 has atomic number  6 and mass  12.00000

 Molecular mass:   214.14700 amu.
 Principal axes and moments of inertia in atomic units:
                           1         2         3
     Eigenvalues --  2824.106972859.312305035.34906
           X            1.00000   0.00020  -0.00000
           Y           -0.00020   1.00000  -0.00163
           Z            0.00000   0.00163   1.00000
 This molecule is an asymmetric top.
 Rotational symmetry number  1.
 Warning -- assumption of classical behavior for rotation
           may cause significant error
 Rotational temperatures (Kelvin)      0.03067     0.03029     0.01720
 Rotational constants (GHZ):           0.63905     0.63118     0.35841
 Zero-point vibrational energy     778627.7 (Joules/Mol)
                                  186.09648 (Kcal/Mol)
 Warning -- explicit consideration of  24 degrees of freedom as
           vibrations may cause significant error
 Vibrational temperatures:     73.37   146.71   173.20   183.23   186.83
          (Kelvin)            227.62   261.64   312.03   353.66   389.28
                              442.71   456.17   465.11   477.18   516.55
                              542.70   564.37   649.16   696.97   709.92
                              781.60   785.37   789.27   802.31   930.33
                              960.85   990.33  1128.30  1128.32  1137.42
                             1151.91  1228.96  1298.21  1321.40  1327.28
                             1396.77  1435.70  1449.41  1531.90  1536.52
                             1570.43  1570.69  1617.18  1620.23  1642.00
                             1652.37  1693.63  1697.85  1707.06  1729.86
                             1764.51  1782.52  1797.43  1829.52  1833.29
                             1953.79  1974.67  2013.36  2018.04  2071.78
                             2098.87  2100.72  2127.47  2135.35  2139.38
                             2146.62  2146.94  2159.71  2166.99  2169.73
                             2177.69  2191.00  2209.37  2214.45  2274.12
                             2389.92  2420.06  2442.09  4276.99  4277.37
                             4293.26  4295.67  4453.70  4453.80  4464.06
                             4464.16  4530.17  4530.18  4608.83  4610.31
                             4610.75  4611.91  4634.46  4638.06  4674.83
                             4674.84

 Zero-point correction=                           0.296564 (Hartree/Particle)
 Thermal correction to Energy=                    0.311287
 Thermal correction to Enthalpy=                  0.312231
 Thermal correction to Gibbs Free Energy=         0.256097
 Sum of electronic and zero-point Energies=           -653.179267
 Sum of electronic and thermal Energies=              -653.164544
 Sum of electronic and thermal Enthalpies=            -653.163600
 Sum of electronic and thermal Free Energies=         -653.219734

                     E (Thermal)             CV                S
                      KCal/Mol        Cal/Mol-Kelvin    Cal/Mol-Kelvin
 Total                  195.335             58.534            118.145
 Electronic               0.000              0.000              0.000
 Translational            0.889              2.981             41.988
 Rotational               0.889              2.981             32.075
 Vibrational            193.558             52.573             44.082
 Vibration     1          0.595              1.977              4.778
 Vibration     2          0.604              1.948              3.416
 Vibration     3          0.609              1.932              3.094
 Vibration     4          0.611              1.926              2.986
 Vibration     5          0.612              1.923              2.948
 Vibration     6          0.621              1.893              2.571
 Vibration     7          0.630              1.864              2.309
 Vibration     8          0.646              1.815              1.985
 Vibration     9          0.660              1.770              1.760
 Vibration    10          0.674              1.727              1.593
 Vibration    11          0.698              1.659              1.375
 Vibration    12          0.704              1.641              1.325
 Vibration    13          0.708              1.629              1.294
 Vibration    14          0.714              1.612              1.252
 Vibration    15          0.734              1.557              1.126
 Vibration    16          0.748              1.519              1.050
 Vibration    17          0.760              1.487              0.992
 Vibration    18          0.810              1.358              0.792
 Vibration    19          0.841              1.285              0.698
 Vibration    20          0.849              1.265              0.675
 Vibration    21          0.898              1.154              0.558
 Vibration    22          0.901              1.149              0.553
 Vibration    23          0.904              1.143              0.547
 Vibration    24          0.913              1.123              0.529

 Normal termination of Gaussian 09 at Thu Jun 20 14:33:02 2024.
