 Gaussian 09, Revision E.01,
 Gaussian 09:  ES64L-G09RevE.01 30-Nov-2015

 ----------------------------
 # opt freq m062x/6-31+g(d,p)
 ----------------------------

 ----------
 [No Title]
 ----------
 Symbolic Z-matrix:
 Charge =  0 Multiplicity = 1

 SCF Done:  E(RM062X) =  -653.555207801     A.U. after   15 cycles
 SCF Done:  E(RM062X) =  -653.554048550     A.U. after   14 cycles
 SCF Done:  E(RM062X) =  -653.555378866     A.U. after   10 cycles
 SCF Done:  E(RM062X) =  -653.555228899     A.U. after   13 cycles
 SCF Done:  E(RM062X) =  -653.555560233     A.U. after    8 cycles
 SCF Done:  E(RM062X) =  -653.555583709     A.U. after   11 cycles
 SCF Done:  E(RM062X) =  -653.555588006     A.U. after   10 cycles
 SCF Done:  E(RM062X) =  -653.555589044     A.U. after   10 cycles
 SCF Done:  E(RM062X) =  -653.555589149     A.U. after   10 cycles
 SCF Done:  E(RM062X) =  -653.555589036     A.U. after    9 cycles
 SCF Done:  E(RM062X) =  -653.555589117     A.U. after    9 cycles
 SCF Done:  E(RM062X) =  -653.555589125     A.U. after    9 cycles
 SCF Done:  E(RM062X) =  -653.555589126     A.U. after    9 cycles
 Optimization completed.
    -- Stationary point found.
 Normal termination of Gaussian 09 at Tue Jun 11 14:26:36 2024.

 ----------------------------------------------------------------------
 #N Geom=AllCheck Guess=TCheck SCRF=Check GenChk RM062X/6-31+G(d,p) Fre
 q
 ----------------------------------------------------------------------

 Structure from the checkpoint file:  "m062xDMAN.chk"
 ----------
 [No Title]
 ----------
 Charge =  0 Multiplicity = 1

                         Standard orientation:
 ---------------------------------------------------------------------
 Center     Atomic      Atomic             Coordinates (Angstroms)
 Number     Number       Type             X           Y           Z
 ---------------------------------------------------------------------
      1          6           0        0.680337    2.433336    0.208355
      2          6           0        2.084300    2.393954    0.341534
      3          6           0        2.751835    1.209910    0.190743
      4          6           0        2.031608   -0.000089    0.000001
      5          6           0        0.602279   -0.000026    0.000003
      6          6           0       -0.064324    1.286210   -0.009534
      7          6           0        2.751728   -1.210151   -0.190744
      8          6           0        2.084088   -2.394135   -0.341536
      9          6           0        0.680122   -2.433394   -0.208356
     10          6           0       -0.064438   -1.286203    0.009538
     11          7           0       -1.449718    1.367381   -0.250568
     12          7           0       -1.449840   -1.367252    0.250571
     13          6           0       -1.896900    0.870993   -1.546332
     14          6           0       -2.121321    2.596435    0.110661
     15          6           0       -2.121554   -2.596241   -0.110672
     16          6           0       -1.896977   -0.870840    1.546341
     17          1           0        0.186304    3.397596    0.220566
     18          1           0        2.628285    3.318873    0.507189
     19          1           0        3.836695    1.169315    0.221662
     20          1           0        3.836592   -1.169651   -0.221665
     21          1           0        2.627991   -3.319102   -0.507195
     22          1           0        0.186004   -3.397611   -0.220570
     23          1           0       -1.297068    0.017026   -1.855964
     24          1           0       -2.941267    0.548075   -1.476242
     25          1           0       -1.816284    1.657639   -2.315694
     26          1           0       -1.870623    2.875249    1.137737
     27          1           0       -1.878204    3.442701   -0.556516
     28          1           0       -3.200888    2.427083    0.052324
     29          1           0       -1.870884   -2.875064   -1.137753
     30          1           0       -1.878513   -3.442537    0.556493
     31          1           0       -3.201106   -2.426792   -0.052331
     32          1           0       -1.297062   -0.016937    1.855988
     33          1           0       -2.941312   -0.547818    1.476254
     34          1           0       -1.816440   -1.657506    2.315691
 ---------------------------------------------------------------------

 SCF Done:  E(RM062X) =  -653.555589126     A.U. after    1 cycles

 The electronic state is 1-A.
 Alpha  occ. eigenvalues --  -14.76496 -14.76495 -10.59027 -10.59027 -10.57138
 Alpha  occ. eigenvalues --  -10.57138 -10.56509 -10.56509 -10.56139 -10.55898
 Alpha  occ. eigenvalues --  -10.55006 -10.55006 -10.54415 -10.54415 -10.54391
 Alpha  occ. eigenvalues --  -10.54389  -1.05923  -1.04109  -0.96495  -0.91429
 Alpha  occ. eigenvalues --   -0.86143  -0.83764  -0.81673  -0.80331  -0.80090
 Alpha  occ. eigenvalues --   -0.73997  -0.73912  -0.69355  -0.67917  -0.63615
 Alpha  occ. eigenvalues --   -0.59364  -0.58398  -0.57385  -0.55077  -0.54540
 Alpha  occ. eigenvalues --   -0.53370  -0.52616  -0.52096  -0.51112  -0.48738
 Alpha  occ. eigenvalues --   -0.47476  -0.46947  -0.46118  -0.45736  -0.45376
 Alpha  occ. eigenvalues --   -0.44473  -0.44252  -0.43268  -0.43114  -0.42895
 Alpha  occ. eigenvalues --   -0.39850  -0.39141  -0.38946  -0.34729  -0.31733
 Alpha  occ. eigenvalues --   -0.29155  -0.25662  -0.23380
 Alpha virt. eigenvalues --   -0.00610   0.01411   0.01426   0.02103   0.02568
 Alpha virt. eigenvalues --    0.03100   0.03750   0.03785   0.04591   0.05347
 Alpha virt. eigenvalues --    0.05901   0.05906   0.06037   0.06319   0.06857

 Mulliken charges:
               1
     1  C   -0.446513
     2  C   -0.322105
     3  C   -0.261792
     4  C    0.014335
     5  C    0.004614
     6  C    0.247069
     7  C   -0.261800
     8  C   -0.322098
     9  C   -0.446507
    10  C    0.247072
    11  N   -0.222940
    12  N   -0.222947
    13  C   -0.170550
    14  C   -0.225365
    15  C   -0.225365
    16  C   -0.170549
    17  H    0.140127
    18  H    0.151082
    19  H    0.147697
    20  H    0.147697
    21  H    0.151082
    22  H    0.140127
    23  H    0.174506
    24  H    0.155296
    25  H    0.144167
    26  H    0.167341
    27  H    0.153145
    28  H    0.159358
    29  H    0.167341
    30  H    0.153145
    31  H    0.159359
    32  H    0.174506
    33  H    0.155297
    34  H    0.144167
 Sum of Mulliken charges =  -0.00000

 Dipole moment (field-independent basis, Debye):
    X=             -1.5528    Y=              0.0001    Z=             -0.0000  Tot=              1.5528
 Quadrupole moment (field-independent basis, Debye-Ang):
   XX=            -90.3731   YY=            -89.6322   ZZ=           -101.9549
   XY=              0.0000   XZ=              0.0001   YZ=              1.7549

  Exact polarizability: 215.018   0.000 218.627   0.000   6.277 120.209
 Approx polarizability: 265.236   0.001 278.347   0.001  14.208 155.641

                      1                      2                      3
                      A                      A                      A
 Frequencies --     56.1090                84.4680                87.2832
 Red. masses --      3.7275                 1.6805                 2.1224
 Frc consts  --      0.0069                 0.0071                 0.0095
 IR Inten    --      0.4260                 4.0557                 0.2351

                      4                      5                      6
                      A                      A                      A
 Frequencies --    120.9913               134.4472               146.2608
 Red. masses --      2.5232                 3.0227                 2.9086
 Frc consts  --      0.0218                 0.0322                 0.0367
 IR Inten    --      1.2786                 0.2242                 0.1724

                      7                      8                      9
                      A                      A                      A
 Frequencies --    176.8317               215.0895               247.1098
 Red. masses --      2.0143                 2.1947                 1.7102
 Frc consts  --      0.0371                 0.0598                 0.0615
 IR Inten    --      1.2335                 0.0123                 0.9027

                     10                     11                     12
                      A                      A                      A
 Frequencies --    269.4762               307.4218               318.1795
 Red. masses --      1.9081                 1.7006                 1.9883
 Frc consts  --      0.0816                 0.0947                 0.1186
 IR Inten    --      5.1291                 3.2238                 1.1696

                     13                     14                     15
                      A                      A                      A
 Frequencies --    324.6875               336.3898               363.3165
 Red. masses --      2.0546                 1.5314                 2.4031
 Frc consts  --      0.1276                 0.1021                 0.1869
 IR Inten    --      2.5833                 0.2842                 0.7854

                     16                     17                     18
                      A                      A                      A
 Frequencies --    373.5299               394.6741               453.4372
 Red. masses --      3.3544                 2.8584                 2.9447
 Frc consts  --      0.2757                 0.2623                 0.3567
 IR Inten    --      3.8978                 2.9601                 1.5739

                     19                     20                     21
                      A                      A                      A
 Frequencies --    479.5498               483.3447               537.2164
 Red. masses --      4.5628                 3.4171                 4.2072
 Frc consts  --      0.6182                 0.4704                 0.7154
 IR Inten    --      4.9820                 2.2184                 4.9060

                     22                     23                     24
                      A                      A                      A
 Frequencies --    539.4639               548.1010               549.8481
 Red. masses --      3.7276                 3.9707                 5.4467
 Frc consts  --      0.6392                 0.7028                 0.9702
 IR Inten    --      1.6275                 0.0050                 2.5638

                     25                     26                     27
                      A                      A                      A
 Frequencies --    644.3658               659.7172               680.2387
 Red. masses --      4.0752                 3.8952                 2.8833
 Frc consts  --      0.9969                 0.9988                 0.7861
 IR Inten    --      3.1386                 8.7262                 7.8734

                     28                     29                     30
                      A                      A                      A
 Frequencies --    776.9127               777.9893               779.9208
 Red. masses --      1.3550                 5.1219                 1.7595
 Frc consts  --      0.4819                 1.8265                 0.6306
 IR Inten    --      0.1477                 0.9348                65.3261

                     31                     32                     33
                      A                      A                      A
 Frequencies --    790.7980               838.8626               888.2502
 Red. masses --      5.2141                 3.0073                 1.4561
 Frc consts  --      1.9211                 1.2468                 0.6769
 IR Inten    --      3.3049                46.4410                 0.1791

                     34                     35                     36
                      A                      A                      A
 Frequencies --    905.4300               925.7486               971.5335
 Red. masses --      1.5178                 4.2233                 3.6605
 Frc consts  --      0.7331                 2.1325                 2.0357
 IR Inten    --      1.7210                 1.2873                32.1344

                     37                     38                     39
                      A                      A                      A
 Frequencies --    989.8409               999.4760              1061.4903
 Red. masses --      1.3068                 1.3214                 3.7596
 Frc consts  --      0.7544                 0.7777                 2.4959
 IR Inten    --      0.5277                 0.4018                32.0260

                     40                     41                     42
                      A                      A                      A
 Frequencies --   1065.0367              1093.8217              1094.2142
 Red. masses --      2.3926                 1.3581                 1.3439
 Frc consts  --      1.5990                 0.9574                 0.9480
 IR Inten    --     84.0447                14.2034                 9.7524

                     43                     44                     45
                      A                      A                      A
 Frequencies --   1116.3810              1118.8465              1132.8459
 Red. masses --      1.2891                 1.3403                 1.6909
 Frc consts  --      0.9466                 0.9885                 1.2786
 IR Inten    --     10.6756                 3.1070                 0.0547

                     46                     47                     48
                      A                      A                      A
 Frequencies --   1141.9476              1165.5081              1167.6869
 Red. masses --      1.6108                 1.4568                 1.4491
 Frc consts  --      1.2376                 1.1659                 1.1641
 IR Inten    --      4.2612                 2.4711                43.1824

                     49                     50                     51
                      A                      A                      A
 Frequencies --   1179.3071              1195.0850              1222.8900
 Red. masses --      1.3491                 1.2126                 1.5643
 Frc consts  --      1.1055                 1.0204                 1.3783
 IR Inten    --      1.8249                 1.9188                 2.3134

                     52                     53                     54
                      A                      A                      A
 Frequencies --   1225.2543              1238.0132              1273.5686
 Red. masses --      2.2704                 1.7998                 3.4263
 Frc consts  --      2.0082                 1.6253                 3.2743
 IR Inten    --     15.0064                14.3293                46.2242

                     55                     56                     57
                      A                      A                      A
 Frequencies --   1275.4084              1358.8121              1363.8353
 Red. masses --      4.2842                 3.2835                 1.9396
 Frc consts  --      4.1060                 3.5719                 2.1256
 IR Inten    --      5.2074                10.6867                24.0357

                     58                     59                     60
                      A                      A                      A
 Frequencies --   1398.4303              1404.1633              1434.3420
 Red. masses --      3.4527                 7.6483                 2.7522
 Frc consts  --      3.9782                 8.8849                 3.3361
 IR Inten    --     19.1723                12.7979               106.6710

                     61                     62                     63
                      A                      A                      A
 Frequencies --   1448.4326              1450.7011              1468.8477
 Red. masses --      1.1657                 1.2680                 1.5822
 Frc consts  --      1.4409                 1.5723                 2.0112
 IR Inten    --      0.1928                15.3007                14.1352

                     64                     65                     66
                      A                      A                      A
 Frequencies --   1472.2422              1479.8235              1484.0457
 Red. masses --      1.3609                 1.1735                 1.0540
 Frc consts  --      1.7379                 1.5141                 1.3676
 IR Inten    --      1.6563                 5.9052                 8.1703

                     67                     68                     69
                      A                      A                      A
 Frequencies --   1485.3941              1495.8214              1498.4286
 Red. masses --      1.2941                 1.0995                 1.0577
 Frc consts  --      1.6822                 1.4494                 1.3993
 IR Inten    --      2.0957                 5.1895                29.1761

                     70                     71                     72
                      A                      A                      A
 Frequencies --   1500.3063              1506.4359              1512.5080
 Red. masses --      1.1229                 1.0508                 1.5123
 Frc consts  --      1.4892                 1.4049                 2.0384
 IR Inten    --     16.5042                 4.2499                16.7953

                     73                     74                     75
                      A                      A                      A
 Frequencies --   1528.6856              1531.3890              1575.3031
 Red. masses --      1.2587                 1.1560                 4.3154
 Frc consts  --      1.7330                 1.5972                 6.3096
 IR Inten    --     27.7251                49.4193                25.0763

                     76                     77                     78
                      A                      A                      A
 Frequencies --   1660.2758              1681.1158              1694.8138
 Red. masses --      6.7463                 5.8565                 6.5546
 Frc consts  --     10.9567                 9.7518                11.0928
 IR Inten    --    227.6372                 0.3116                14.9955

                     79                     80                     81
                      A                      A                      A
 Frequencies --   2980.7740              2981.3313              2997.9618
 Red. masses --      1.0559                 1.0559                 1.0550
 Frc consts  --      5.5274                 5.5295                 5.5867
 IR Inten    --    165.3489                18.2444               205.9193

                     82                     83                     84
                      A                      A                      A
 Frequencies --   2999.2060              3096.8198              3096.8722
 Red. masses --      1.0543                 1.0776                 1.0787
 Frc consts  --      5.5875                 6.0890                 6.0953
 IR Inten    --     45.6787                19.2793                84.7969

                     85                     86                     87
                      A                      A                      A
 Frequencies --   3097.9756              3099.7277              3151.5137
 Red. masses --      1.0867                 1.0869                 1.1028
 Frc consts  --      6.1447                 6.1531                 6.4534
 IR Inten    --     11.7077                20.5341                11.3968

                     88                     89                     90
                      A                      A                      A
 Frequencies --   3151.5381              3194.4883              3195.3960
 Red. masses --      1.1027                 1.0863                 1.0863
 Frc consts  --      6.4530                 6.5314                 6.5350
 IR Inten    --     22.8160                 3.3958                 0.6391

                     91                     92                     93
                      A                      A                      A
 Frequencies --   3200.5052              3200.9422              3210.9905
 Red. masses --      1.0956                 1.0956                 1.0958
 Frc consts  --      6.6124                 6.6141                 6.6565
 IR Inten    --      4.5709                 9.3476                 5.6275

                     94                     95                     96
                      A                      A                      A
 Frequencies --   3212.6693              3226.6746              3226.7643
 Red. masses --      1.0949                 1.0935                 1.0934
 Frc consts  --      6.6585                 6.7075                 6.7075
 IR Inten    --     34.8632                13.4201                 0.2078

 - Thermochemistry -
 -------------------
 Temperature   298.150 Kelvin.  Pressure   1.00000 Atm.
 Atom     1 has atomic number  6 and mass  12.00000

 Molecular mass:   214.14700 amu.
 Principal axes and moments of inertia in atomic units:
                           1         2         3
     Eigenvalues --  2799.384422856.086715010.86203
           X            1.00000   0.00001  -0.00000
           Y           -0.00001   1.00000  -0.00166
           Z            0.00000   0.00166   1.00000
 This molecule is an asymmetric top.
 Rotational symmetry number  1.
 Warning -- assumption of classical behavior for rotation
           may cause significant error
 Rotational temperatures (Kelvin)      0.03094     0.03033     0.01729
 Rotational constants (GHZ):           0.64469     0.63189     0.36017
 Zero-point vibrational energy     775777.8 (Joules/Mol)
                                  185.41534 (Kcal/Mol)
 Warning -- explicit consideration of  24 degrees of freedom as
           vibrations may cause significant error
 Vibrational temperatures:     80.73   121.53   125.58   174.08   193.44
          (Kelvin)            210.44   254.42   309.47   355.54   387.72
                              442.31   457.79   467.15   483.99   522.73
                              537.43   567.85   652.39   689.96   695.42
                              772.93   776.17   788.59   791.11   927.10
                              949.18   978.71  1117.80  1119.35  1122.13
                             1137.78  1206.93  1277.99  1302.71  1331.94
                             1397.82  1424.16  1438.02  1527.25  1532.35
                             1573.76  1574.33  1606.22  1609.77  1629.91
                             1643.01  1676.90  1680.04  1696.76  1719.46
                             1759.46  1762.87  1781.22  1832.38  1835.03
                             1955.03  1962.25  2012.03  2020.28  2063.70
                             2083.97  2087.23  2113.34  2118.23  2129.13
                             2135.21  2137.15  2152.15  2155.90  2158.60
                             2167.42  2176.16  2199.43  2203.32  2266.51
                             2388.76  2418.75  2438.46  4288.66  4289.47
                             4313.39  4315.18  4455.63  4455.70  4457.29
                             4459.81  4534.32  4534.35  4596.15  4597.46
                             4604.81  4605.44  4619.89  4622.31  4642.46
                             4642.59

 Zero-point correction=                           0.295478 (Hartree/Particle)
 Thermal correction to Energy=                    0.310373
 Thermal correction to Enthalpy=                  0.311317
 Thermal correction to Gibbs Free Energy=         0.254625
 Sum of electronic and zero-point Energies=           -653.260111
 Sum of electronic and thermal Energies=              -653.245216
 Sum of electronic and thermal Enthalpies=            -653.244272
 Sum of electronic and thermal Free Energies=         -653.300964

                     E (Thermal)             CV                S
                      KCal/Mol        Cal/Mol-Kelvin    Cal/Mol-Kelvin
 Total                  194.762             58.918            119.318
 Electronic               0.000              0.000              0.000
 Translational            0.889              2.981             41.988
 Rotational               0.889              2.981             32.060
 Vibrational            192.985             52.956             45.270
 Vibration     1          0.596              1.975              4.590
 Vibration     2          0.601              1.960              3.784
 Vibration     3          0.601              1.958              3.720
 Vibration     4          0.609              1.932              3.084
 Vibration     5          0.613              1.919              2.881
 Vibration     6          0.617              1.907              2.720
 Vibration     7          0.628              1.871              2.362
 Vibration     8          0.645              1.818              2.000
 Vibration     9          0.661              1.768              1.751
 Vibration    10          0.674              1.729              1.600
 Vibration    11          0.697              1.660              1.376
 Vibration    12          0.705              1.639              1.319
 Vibration    13          0.709              1.626              1.286
 Vibration    14          0.717              1.603              1.229
 Vibration    15          0.737              1.548              1.108
 Vibration    16          0.745              1.526              1.065
 Vibration    17          0.762              1.482              0.982
 Vibration    18          0.812              1.353              0.785
 Vibration    19          0.836              1.295              0.711
 Vibration    20          0.840              1.287              0.701
 Vibration    21          0.892              1.168              0.571
 Vibration    22          0.895              1.163              0.566
 Vibration    23          0.903              1.144              0.548
 Vibration    24          0.905              1.140              0.544

 Optimization completed.
    -- Stationary point found.
 Normal termination of Gaussian 09 at Tue Jun 11 14:44:26 2024.
