 Gaussian 09, Revision E.01,
 Gaussian 09:  ES64L-G09RevE.01 30-Nov-2015

 ----------------------------
 # opt freq m062x/6-31+g(d,p)
 ----------------------------

 ----------
 [No Title]
 ----------
 Symbolic Z-matrix:
 Charge =  1 Multiplicity = 1

 SCF Done:  E(RM062X) =  -653.953477048     A.U. after   14 cycles
 SCF Done:  E(RM062X) =  -653.953745685     A.U. after   11 cycles
 SCF Done:  E(RM062X) =  -653.953779303     A.U. after   11 cycles
 SCF Done:  E(RM062X) =  -653.953759151     A.U. after   10 cycles
 SCF Done:  E(RM062X) =  -653.953776475     A.U. after   10 cycles
 SCF Done:  E(RM062X) =  -653.953781204     A.U. after   10 cycles
 SCF Done:  E(RM062X) =  -653.953782866     A.U. after    9 cycles
 Optimization completed.
    -- Stationary point found.
 Normal termination of Gaussian 09 at Tue Jun 11 20:01:51 2024.

 ----------------------------------------------------------------------
 #N Geom=AllCheck Guess=TCheck SCRF=Check GenChk RM062X/6-31+G(d,p) Fre
 q
 ----------------------------------------------------------------------

 Structure from the checkpoint file:  "m062xDMANyang.chk"
 ----------
 [No Title]
 ----------
 Charge =  1 Multiplicity = 1

                         Standard orientation:
 ---------------------------------------------------------------------
 Center     Atomic      Atomic             Coordinates (Angstroms)
 Number     Number       Type             X           Y           Z
 ---------------------------------------------------------------------
      1          6           0       -0.766507   -2.429076   -0.000055
      2          6           0       -2.178133   -2.379221   -0.000031
      3          6           0       -2.813995   -1.164968    0.000002
      4          6           0       -2.080349    0.050860    0.000021
      5          6           0       -0.651861    0.020270    0.000005
      6          6           0       -0.038059   -1.268644   -0.000038
      7          6           0       -2.756180    1.298897    0.000056
      8          6           0       -2.056359    2.476968    0.000080
      9          6           0       -0.643609    2.455676    0.000070
     10          6           0        0.047378    1.269134    0.000035
     11          7           0        1.433515   -1.332115   -0.000079
     12          7           0        1.504760    1.256766    0.000041
     13          6           0        1.987352   -1.950651    1.234706
     14          6           0        1.987276   -1.950532   -1.234958
     15          6           0        2.073542    1.864930   -1.218407
     16          6           0        2.073520    1.864772    1.218578
     17          1           0       -0.264639   -3.392851   -0.000090
     18          1           0       -2.746437   -3.302322   -0.000041
     19          1           0       -3.898604   -1.113853    0.000016
     20          1           0       -3.841875    1.301104    0.000069
     21          1           0       -2.577475    3.427984    0.000111
     22          1           0       -0.097225    3.394801    0.000096
     23          1           0        1.698393   -0.242672   -0.000037
     24          1           0        3.072670   -1.834743    1.226963
     25          1           0        1.559626   -1.444814    2.100922
     26          1           0        1.730452   -3.011060    1.267335
     27          1           0        3.072594   -1.834613   -1.227279
     28          1           0        1.559486   -1.444620   -2.101098
     29          1           0        1.730383   -3.010940   -1.267666
     30          1           0        1.630551    1.396795   -2.100107
     31          1           0        1.880359    2.943493   -1.260028
     32          1           0        3.154450    1.702789   -1.224862
     33          1           0        1.630522    1.396513    2.100209
     34          1           0        3.154430    1.702642    1.225026
     35          1           0        1.880320    2.943326    1.260342
 ---------------------------------------------------------------------

 SCF Done:  E(RM062X) =  -653.953782866     A.U. after    1 cycles

 The electronic state is 1-A.
 Alpha  occ. eigenvalues --  -14.99318 -14.93299 -10.74289 -10.73689 -10.73688
 Alpha  occ. eigenvalues --  -10.72869 -10.71206 -10.70934 -10.70933 -10.70131
 Alpha  occ. eigenvalues --  -10.69929 -10.68991 -10.68737 -10.68648 -10.68258
 Alpha  occ. eigenvalues --  -10.68167  -1.25426  -1.19660  -1.11445  -1.05922
 Alpha  occ. eigenvalues --   -1.01097  -0.98051  -0.97791  -0.95791  -0.94570
 Alpha  occ. eigenvalues --   -0.91469  -0.88092  -0.85074  -0.82952  -0.79997
 Alpha  occ. eigenvalues --   -0.75873  -0.74034  -0.73302  -0.70798  -0.70346
 Alpha  occ. eigenvalues --   -0.69377  -0.66901  -0.66836  -0.66195  -0.63967
 Alpha  occ. eigenvalues --   -0.63240  -0.62934  -0.61600  -0.61276  -0.60545
 Alpha  occ. eigenvalues --   -0.60233  -0.59202  -0.59051  -0.58347  -0.57317
 Alpha  occ. eigenvalues --   -0.56830  -0.53920  -0.53271  -0.52595  -0.47805
 Alpha  occ. eigenvalues --   -0.45008  -0.43258  -0.40036
 Alpha virt. eigenvalues --   -0.15326  -0.12301  -0.10599  -0.08620  -0.08549
 Alpha virt. eigenvalues --   -0.08162  -0.07725  -0.07076  -0.06544  -0.05933
 Alpha virt. eigenvalues --   -0.05790  -0.05624  -0.04737  -0.04171  -0.03971

 Mulliken charges:
               1
     1  C   -0.085779
     2  C   -0.214397
     3  C   -0.057370
     4  C   -0.389150
     5  C    0.157472
     6  C   -0.004821
     7  C   -0.087868
     8  C   -0.200735
     9  C   -0.115199
    10  C   -0.005483
    11  N   -0.672653
    12  N   -0.715287
    13  C   -0.164737
    14  C   -0.164748
    15  C   -0.156138
    16  C   -0.156146
    17  H    0.174840
    18  H    0.194324
    19  H    0.188897
    20  H    0.186880
    21  H    0.192698
    22  H    0.174994
    23  H    0.495474
    24  H    0.209988
    25  H    0.216539
    26  H    0.212394
    27  H    0.209988
    28  H    0.216540
    29  H    0.212395
    30  H    0.190773
    31  H    0.192533
    32  H    0.190238
    33  H    0.190771
    34  H    0.190238
    35  H    0.192535
 Sum of Mulliken charges =   1.00000

 Dipole moment (field-independent basis, Debye):
    X=              3.9717    Y=             -1.6400    Z=             -0.0001  Tot=              4.2970
 Quadrupole moment (field-independent basis, Debye-Ang):
   XX=            -63.1149   YY=            -64.4332   ZZ=            -92.2987
   XY=             -3.0529   XZ=             -0.0005   YZ=              0.0010

  Exact polarizability: 192.481   0.869 207.459  -0.001   0.003 109.088
 Approx polarizability: 235.130   1.031 275.532  -0.001   0.003 141.284

                      1                      2                      3
                      A                      A                      A
 Frequencies --     20.2852                72.3390               131.5686
 Red. masses --      3.4625                 2.7183                 2.9599
 Frc consts  --      0.0008                 0.0084                 0.0302
 IR Inten    --      0.0599                 0.1851                 0.7492

                      4                      5                      6
                      A                      A                      A
 Frequencies --    133.1055               158.8125               178.4071
 Red. masses --      2.7525                 2.7511                 2.9578
 Frc consts  --      0.0287                 0.0409                 0.0555
 IR Inten    --      0.0235                23.7470                 4.0701

                      7                      8                      9
                      A                      A                      A
 Frequencies --    190.7859               213.8482               222.5710
 Red. masses --      3.3148                 1.1452                 1.4410
 Frc consts  --      0.0711                 0.0309                 0.0421
 IR Inten    --      0.3066                 0.1231                 1.2304

                     10                     11                     12
                      A                      A                      A
 Frequencies --    233.8090               257.9301               260.4086
 Red. masses --      1.0992                 1.2104                 2.2404
 Frc consts  --      0.0354                 0.0474                 0.0895
 IR Inten    --      0.0172                 4.5530                 0.5544

                     13                     14                     15
                      A                      A                      A
 Frequencies --    278.5685               322.5060               324.7825
 Red. masses --      2.0397                 3.3158                 2.6095
 Frc consts  --      0.0933                 0.2032                 0.1622
 IR Inten    --      0.1255                 0.1837                 2.6058

                     16                     17                     18
                      A                      A                      A
 Frequencies --    384.4162               428.2582               448.0299
 Red. masses --      3.6458                 3.0714                 2.9267
 Frc consts  --      0.3174                 0.3319                 0.3461
 IR Inten    --     13.0888                37.7393                 0.3333

                     19                     20                     21
                      A                      A                      A
 Frequencies --    476.2126               499.7781               529.9785
 Red. masses --      3.3250                 5.1872                 4.6751
 Frc consts  --      0.4443                 0.7634                 0.7737
 IR Inten    --      0.4585                27.0744                13.6667

                     22                     23                     24
                      A                      A                      A
 Frequencies --    536.2187               541.6444               571.4898
 Red. masses --      4.4446                 3.5251                 3.8294
 Frc consts  --      0.7530                 0.6093                 0.7369
 IR Inten    --     11.0718                 0.0087                 3.1200

                     25                     26                     27
                      A                      A                      A
 Frequencies --    649.9166               674.2595               680.8082
 Red. masses --      4.0501                 2.9889                 3.5325
 Frc consts  --      1.0079                 0.8006                 0.9647
 IR Inten    --      0.0816                 0.1902                84.8707

                     28                     29                     30
                      A                      A                      A
 Frequencies --    778.2608               785.2866               792.0206
 Red. masses --      4.6856                 2.2751                 5.2840
 Frc consts  --      1.6721                 0.8266                 1.9529
 IR Inten    --      1.3883                59.1053                 0.6670

                     31                     32                     33
                      A                      A                      A
 Frequencies --    795.6207               852.6792               899.6960
 Red. masses --      1.3175                 2.1102                 3.8721
 Frc consts  --      0.4914                 0.9039                 1.8467
 IR Inten    --      1.0115                36.2744                64.3896

                     34                     35                     36
                      A                      A                      A
 Frequencies --    935.5675               939.0310               959.7163
 Red. masses --      3.6926                 1.3939                 1.4393
 Frc consts  --      1.9043                 0.7242                 0.7811
 IR Inten    --     36.6620                 0.6531                 1.6835

                     37                     38                     39
                      A                      A                      A
 Frequencies --   1015.9585              1027.0473              1028.2076
 Red. masses --      1.3381                 1.3507                 3.1116
 Frc consts  --      0.8138                 0.8394                 1.9382
 IR Inten    --      0.0734                 0.1787                32.0210

                     40                     41                     42
                      A                      A                      A
 Frequencies --   1042.0292              1052.4781              1057.9404
 Red. masses --      1.7896                 3.3125                 1.6065
 Frc consts  --      1.1449                 2.1619                 1.0594
 IR Inten    --     12.8597                20.8383                15.1574

                     43                     44                     45
                      A                      A                      A
 Frequencies --   1091.8308              1112.1450              1113.5040
 Red. masses --      1.2138                 1.9622                 1.2480
 Frc consts  --      0.8525                 1.4300                 0.9117
 IR Inten    --      0.9760                19.0426                 1.3987

                     46                     47                     48
                      A                      A                      A
 Frequencies --   1118.3383              1180.9845              1191.5052
 Red. masses --      1.7856                 1.2255                 1.3851
 Frc consts  --      1.3158                 1.0071                 1.1586
 IR Inten    --      2.7993                 6.2318                 3.3232

                     49                     50                     51
                      A                      A                      A
 Frequencies --   1197.3872              1203.3477              1211.1894
 Red. masses --      1.5580                 2.5018                 1.3459
 Frc consts  --      1.3161                 2.1345                 1.1633
 IR Inten    --     37.6858                 9.5388                23.3951

                     52                     53                     54
                      A                      A                      A
 Frequencies --   1226.4149              1227.7052              1239.6881
 Red. masses --      3.3677                 1.4979                 1.7084
 Frc consts  --      2.9844                 1.3302                 1.5469
 IR Inten    --     14.7825                71.6452                22.5897

                     55                     56                     57
                      A                      A                      A
 Frequencies --   1247.0970              1291.8147              1317.7891
 Red. masses --      1.9051                 2.2385                 2.4426
 Frc consts  --      1.7457                 2.2009                 2.4992
 IR Inten    --     21.3444                 2.2433                26.1722

                     58                     59                     60
                      A                      A                      A
 Frequencies --   1379.4005              1396.1590              1421.7820
 Red. masses --      1.9242                 3.7601                 5.2589
 Frc consts  --      2.1572                 4.3184                 6.2634
 IR Inten    --    206.7726                 4.1034                 6.2361

                     61                     62                     63
                      A                      A                      A
 Frequencies --   1437.3414              1441.2492              1445.8095
 Red. masses --      1.6287                 1.1466                 1.1465
 Frc consts  --      1.9824                 1.4033                 1.4121
 IR Inten    --     95.3933                 0.5696                 9.3921

                     64                     65                     66
                      A                      A                      A
 Frequencies --   1476.1570              1481.5995              1482.8434
 Red. masses --      1.4228                 1.4756                 1.0424
 Frc consts  --      1.8267                 1.9085                 1.3504
 IR Inten    --      0.8097                 3.8219                 0.0107

                     67                     68                     69
                      A                      A                      A
 Frequencies --   1492.2229              1497.0979              1497.2709
 Red. masses --      1.0472                 1.1708                 1.0431
 Frc consts  --      1.3739                 1.5461                 1.3778
 IR Inten    --      2.6181                 1.7018                 3.5787

                     70                     71                     72
                      A                      A                      A
 Frequencies --   1505.5977              1511.7331              1513.1820
 Red. masses --      1.0436                 1.0600                 1.3247
 Frc consts  --      1.3939                 1.4273                 1.7871
 IR Inten    --     13.6858                11.2182                 6.4677

                     73                     74                     75
                      A                      A                      A
 Frequencies --   1519.6491              1526.1238              1546.3226
 Red. masses --      1.4911                 1.1309                 1.9550
 Frc consts  --      2.0288                 1.5519                 2.7542
 IR Inten    --     20.5632                29.8649               340.3498

                     76                     77                     78
                      A                      A                      A
 Frequencies --   1594.7512              1660.7103              1664.1356
 Red. masses --      2.3180                 1.0910                 7.2186
 Frc consts  --      3.4734                 1.7728                11.7782
 IR Inten    --    198.5558                 5.9039                 3.3325

                     79                     80                     81
                      A                      A                      A
 Frequencies --   1697.8194              1717.9414              2015.9111
 Red. masses --      5.2508                 6.8281                 1.1202
 Frc consts  --      8.9178                11.8731                 2.6821
 IR Inten    --     47.2216                38.4110               990.6277

                     82                     83                     84
                      A                      A                      A
 Frequencies --   3054.5692              3056.4755              3092.4956
 Red. masses --      1.0346                 1.0360                 1.0312
 Frc consts  --      5.6874                 5.7022                 5.8105
 IR Inten    --     16.2722                16.4267                 3.9412

                     85                     86                     87
                      A                      A                      A
 Frequencies --   3094.8939              3136.2178              3137.0792
 Red. masses --      1.0321                 1.1011                 1.1026
 Frc consts  --      5.8246                 6.3808                 6.3933
 IR Inten    --      4.6026                17.9669                 1.0066

                     88                     89                     90
                      A                      A                      A
 Frequencies --   3166.0424              3167.3598              3190.7989
 Red. masses --      1.1060                 1.1064                 1.1078
 Frc consts  --      6.5319                 6.5395                 6.6450
 IR Inten    --      2.6965                14.3290                 0.0365

                     91                     92                     93
                      A                      A                      A
 Frequencies --   3191.5550              3197.0741              3198.2108
 Red. masses --      1.1063                 1.1021                 1.1076
 Frc consts  --      6.6396                 6.6372                 6.6748
 IR Inten    --      5.5149                 0.7847                 0.1827

                     94                     95                     96
                      A                      A                      A
 Frequencies --   3201.0624              3204.5791              3211.1034
 Red. masses --      1.0984                 1.0899                 1.0914
 Frc consts  --      6.6313                 6.5942                 6.6307
 IR Inten    --      3.0213                 2.1764                 0.5460

                     97                     98                     99
                      A                      A                      A
 Frequencies --   3215.7323              3229.4988              3242.1193
 Red. masses --      1.0913                 1.0983                 1.0971
 Frc consts  --      6.6487                 6.7492                 6.7944
 IR Inten    --      0.3791                 0.2945                 0.1905

 - Thermochemistry -
 -------------------
 Temperature   298.150 Kelvin.  Pressure   1.00000 Atm.
 Atom     1 has atomic number  6 and mass  12.00000

 Molecular mass:   215.15482 amu.
 Principal axes and moments of inertia in atomic units:
                           1         2         3
     Eigenvalues --  2820.289882974.620515062.73029
           X            1.00000  -0.00298   0.00001
           Y            0.00298   1.00000  -0.00003
           Z           -0.00001   0.00003   1.00000
 This molecule is an asymmetric top.
 Rotational symmetry number  1.
 Warning -- assumption of classical behavior for rotation
           may cause significant error
 Rotational temperatures (Kelvin)      0.03071     0.02912     0.01711
 Rotational constants (GHZ):           0.63991     0.60671     0.35648
 Zero-point vibrational energy     809050.6 (Joules/Mol)
                                  193.36773 (Kcal/Mol)
 Warning -- explicit consideration of  24 degrees of freedom as
           vibrations may cause significant error
 Vibrational temperatures:     29.19   104.08   189.30   191.51   228.50
          (Kelvin)            256.69   274.50   307.68   320.23   336.40
                              371.10   374.67   400.80   464.01   467.29
                              553.09   616.17   644.61   685.16   719.07
                              762.52   771.50   779.30   822.25   935.08
                              970.11   979.53  1119.74  1129.85  1139.54
                             1144.72  1226.81  1294.46  1346.07  1351.05
                             1380.82  1461.74  1477.69  1479.36  1499.25
                             1514.28  1522.14  1570.90  1600.13  1602.08
                             1609.04  1699.17  1714.31  1722.77  1731.35
                             1742.63  1764.54  1766.39  1783.63  1794.29
                             1858.63  1896.00  1984.65  2008.76  2045.62
                             2068.01  2073.63  2080.19  2123.86  2131.69
                             2133.48  2146.97  2153.99  2154.24  2166.22
                             2175.04  2177.13  2186.43  2195.75  2224.81
                             2294.49  2389.39  2394.32  2442.78  2471.73
                             2900.44  4394.84  4397.58  4449.41  4452.86
                             4512.31  4513.55  4555.22  4557.12  4590.84
                             4591.93  4599.87  4601.51  4605.61  4610.67
                             4620.06  4626.72  4646.52  4664.68

 Zero-point correction=                           0.308151 (Hartree/Particle)
 Thermal correction to Energy=                    0.323213
 Thermal correction to Enthalpy=                  0.324157
 Thermal correction to Gibbs Free Energy=         0.266530
 Sum of electronic and zero-point Energies=           -653.645632
 Sum of electronic and thermal Energies=              -653.630570
 Sum of electronic and thermal Enthalpies=            -653.629626
 Sum of electronic and thermal Free Energies=         -653.687253

                     E (Thermal)             CV                S
                      KCal/Mol        Cal/Mol-Kelvin    Cal/Mol-Kelvin
 Total                  202.819             59.321            121.286
 Electronic               0.000              0.000              0.000
 Translational            0.889              2.981             42.002
 Rotational               0.889              2.981             32.118
 Vibrational            201.041             53.360             47.165
 Vibration     1          0.593              1.986              6.606
 Vibration     2          0.598              1.967              4.089
 Vibration     3          0.612              1.922              2.923
 Vibration     4          0.613              1.920              2.901
 Vibration     5          0.621              1.893              2.564
 Vibration     6          0.629              1.869              2.345
 Vibration     7          0.634              1.853              2.220
 Vibration     8          0.644              1.820              2.011
 Vibration     9          0.648              1.807              1.938
 Vibration    10          0.654              1.789              1.850
 Vibration    11          0.667              1.749              1.676
 Vibration    12          0.668              1.745              1.659
 Vibration    13          0.679              1.713              1.542
 Vibration    14          0.708              1.630              1.297
 Vibration    15          0.709              1.626              1.286
 Vibration    16          0.753              1.503              1.022
 Vibration    17          0.790              1.409              0.864
 Vibration    18          0.807              1.365              0.802
 Vibration    19          0.833              1.303              0.720
 Vibration    20          0.855              1.251              0.659
 Vibration    21          0.885              1.184              0.587
 Vibration    22          0.891              1.170              0.573
 Vibration    23          0.897              1.158              0.562
 Vibration    24          0.928              1.093              0.501

 Normal termination of Gaussian 09 at Tue Jun 11 20:18:54 2024.
