 Gaussian 09, Revision E.01,
 Gaussian 09:  ES64L-G09RevE.01 30-Nov-2015

 -----------------------------
 # opt freq pbepbe/6-31+g(d,p)
 -----------------------------

 ----------
 [No Title]
 ----------
 Symbolic Z-matrix:
 Charge =  0 Multiplicity = 1

 SCF Done:  E(RPBE-PBE) =  -652.998942108     A.U. after   16 cycles
 SCF Done:  E(RPBE-PBE) =  -653.000107158     A.U. after   14 cycles
 SCF Done:  E(RPBE-PBE) =  -652.997834773     A.U. after   15 cycles
 SCF Done:  E(RPBE-PBE) =  -653.000545847     A.U. after   11 cycles
 SCF Done:  E(RPBE-PBE) =  -653.000676543     A.U. after   12 cycles
 SCF Done:  E(RPBE-PBE) =  -653.000606922     A.U. after   12 cycles
 SCF Done:  E(RPBE-PBE) =  -653.000683380     A.U. after   12 cycles
 SCF Done:  E(RPBE-PBE) =  -653.000691802     A.U. after   11 cycles
 SCF Done:  E(RPBE-PBE) =  -653.000691030     A.U. after   11 cycles
 SCF Done:  E(RPBE-PBE) =  -653.000697094     A.U. after   10 cycles
 SCF Done:  E(RPBE-PBE) =  -653.000698075     A.U. after   11 cycles
 SCF Done:  E(RPBE-PBE) =  -653.000698582     A.U. after   10 cycles
 Optimization completed.
    -- Stationary point found.
 Normal termination of Gaussian 09 at Tue Jun 11 12:32:51 2024.

 ----------------------------------------------------------------------
 #N Geom=AllCheck Guess=TCheck SCRF=Check GenChk RPBEPBE/6-31+G(d,p) Fr
 eq
 ----------------------------------------------------------------------

 Structure from the checkpoint file:  "pbeDMAN.chk"
 ----------
 [No Title]
 ----------
 Charge =  0 Multiplicity = 1

                         Standard orientation:
 ---------------------------------------------------------------------
 Center     Atomic      Atomic             Coordinates (Angstroms)
 Number     Number       Type             X           Y           Z
 ---------------------------------------------------------------------
      1          6           0        0.680905    2.450002    0.250138
      2          6           0        2.085610    2.405654    0.403759
      3          6           0        2.762068    1.213566    0.224864
      4          6           0        2.043276    0.002609   -0.000116
      5          6           0        0.594144    0.000729   -0.000011
      6          6           0       -0.071951    1.295889   -0.010171
      7          6           0        2.765110   -1.206538   -0.225157
      8          6           0        2.091759   -2.400443   -0.403695
      9          6           0        0.687205   -2.448412   -0.249787
     10          6           0       -0.068509   -1.296156    0.010373
     11          7           0       -1.454167    1.397194   -0.290685
     12          7           0       -1.450428   -1.400983    0.291054
     13          6           0       -1.902388    0.870498   -1.582130
     14          6           0       -2.131025    2.639691    0.046813
     15          6           0       -2.124631   -2.644590   -0.047464
     16          6           0       -1.900208   -0.875548    1.582388
     17          1           0        0.186724    3.423687    0.264487
     18          1           0        2.633549    3.333358    0.597255
     19          1           0        3.855587    1.175146    0.256140
     20          1           0        3.858522   -1.165299   -0.256703
     21          1           0        2.642139   -3.326725   -0.597073
     22          1           0        0.195444   -3.423342   -0.263659
     23          1           0       -1.326685   -0.020970   -1.856911
     24          1           0       -2.968020    0.589229   -1.523512
     25          1           0       -1.781318    1.630678   -2.386221
     26          1           0       -1.899322    2.933552    1.082884
     27          1           0       -1.873110    3.488553   -0.628154
     28          1           0       -3.219029    2.475477   -0.030730
     29          1           0       -1.891390   -2.937727   -1.083386
     30          1           0       -1.865829   -3.493194    0.627503
     31          1           0       -3.213056   -2.482499    0.029068
     32          1           0       -1.324238    0.015216    1.858934
     33          1           0       -2.965634   -0.593608    1.522941
     34          1           0       -1.780360   -1.636703    2.385741
 ---------------------------------------------------------------------

 SCF Done:  E(RPBE-PBE) =  -653.000698582     A.U. after    1 cycles

 The electronic state is 1-A.
 Alpha  occ. eigenvalues --  -14.02339 -14.02337  -9.94123  -9.94122  -9.92733
 Alpha  occ. eigenvalues --   -9.92732  -9.92114  -9.92113  -9.91482  -9.91135
 Alpha  occ. eigenvalues --   -9.90182  -9.90181  -9.89771  -9.89771  -9.89564
 Alpha  occ. eigenvalues --   -9.89564  -0.86786  -0.85401  -0.77783  -0.73394
 Alpha  occ. eigenvalues --   -0.69032  -0.66892  -0.65282  -0.64389  -0.64104
 Alpha  occ. eigenvalues --   -0.58947  -0.58753  -0.54572  -0.53619  -0.50061
 Alpha  occ. eigenvalues --   -0.46520  -0.45668  -0.44630  -0.42837  -0.41940
 Alpha  occ. eigenvalues --   -0.41577  -0.40909  -0.40155  -0.39286  -0.37335
 Alpha  occ. eigenvalues --   -0.36000  -0.35744  -0.35051  -0.34778  -0.34637
 Alpha  occ. eigenvalues --   -0.33608  -0.33406  -0.32765  -0.32677  -0.32143
 Alpha  occ. eigenvalues --   -0.29866  -0.28917  -0.28670  -0.25428  -0.22389
 Alpha  occ. eigenvalues --   -0.21524  -0.16916  -0.16117
 Alpha virt. eigenvalues --   -0.06089  -0.04145  -0.01615  -0.00680  -0.00038
 Alpha virt. eigenvalues --    0.00137   0.01283   0.01526   0.01814   0.02202
 Alpha virt. eigenvalues --    0.03257   0.03705   0.03758   0.04024   0.04408

 Mulliken charges:
               1
     1  C   -0.355486
     2  C   -0.417983
     3  C   -0.083939
     4  C   -0.182575
     5  C   -0.103202
     6  C    0.104629
     7  C   -0.084591
     8  C   -0.416997
     9  C   -0.355630
    10  C    0.104015
    11  N    0.097211
    12  N    0.097163
    13  C   -0.292596
    14  C   -0.311466
    15  C   -0.311551
    16  C   -0.292298
    17  H    0.129509
    18  H    0.138331
    19  H    0.135915
    20  H    0.135911
    21  H    0.138332
    22  H    0.129532
    23  H    0.187213
    24  H    0.158897
    25  H    0.152080
    26  H    0.174643
    27  H    0.162118
    28  H    0.163932
    29  H    0.174629
    30  H    0.162104
    31  H    0.163986
    32  H    0.187128
    33  H    0.159012
    34  H    0.152022
 Sum of Mulliken charges =  -0.00000

 Dipole moment (field-independent basis, Debye):
    X=             -2.0773    Y=             -0.0024    Z=             -0.0001  Tot=              2.0773
 Quadrupole moment (field-independent basis, Debye-Ang):
   XX=            -90.9245   YY=            -90.7282   ZZ=           -101.8693
   XY=             -0.0013   XZ=              0.0000   YZ=              1.7334

  Exact polarizability: 236.274   0.004 238.691  -0.017   6.354 130.214
 Approx polarizability: 479.562   0.021 479.044  -0.071  32.161 224.228

                      1                      2                      3
                      A                      A                      A
 Frequencies --     56.2669               102.9673               118.9089
 Red. masses --      3.8333                 2.3992                 2.5345
 Frc consts  --      0.0072                 0.0150                 0.0211
 IR Inten    --      0.6325                 0.1913                 0.0915

                      4                      5                      6
                      A                      A                      A
 Frequencies --    123.7067               125.0468               145.9040
 Red. masses --      2.1391                 3.1624                 2.7217
 Frc consts  --      0.0193                 0.0291                 0.0341
 IR Inten    --      5.3471                 1.1180                 0.6075

                      7                      8                      9
                      A                      A                      A
 Frequencies --    169.8385               207.7481               236.9265
 Red. masses --      1.6868                 2.3830                 1.5000
 Frc consts  --      0.0287                 0.0606                 0.0496
 IR Inten    --      0.7095                 0.0510                 0.4418

                     10                     11                     12
                      A                      A                      A
 Frequencies --    265.8429               294.4369               306.9776
 Red. masses --      1.7949                 1.7913                 1.5675
 Frc consts  --      0.0747                 0.0915                 0.0870
 IR Inten    --      3.9518                 5.3029                 1.4921

                     13                     14                     15
                      A                      A                      A
 Frequencies --    308.0488               326.0025               346.5500
 Red. masses --      1.8762                 1.9702                 2.4922
 Frc consts  --      0.1049                 0.1234                 0.1763
 IR Inten    --      3.6847                 0.3990                 2.1999

                     16                     17                     18
                      A                      A                      A
 Frequencies --    352.0384               378.7962               437.0247
 Red. masses --      3.5219                 2.7276                 2.9875
 Frc consts  --      0.2572                 0.2306                 0.3362
 IR Inten    --      4.5543                 2.6000                 0.9699

                     19                     20                     21
                      A                      A                      A
 Frequencies --    463.3156               468.1002               514.9304
 Red. masses --      4.4874                 3.5491                 3.7916
 Frc consts  --      0.5675                 0.4582                 0.5923
 IR Inten    --      6.2261                 2.7639                 2.0374

                     22                     23                     24
                      A                      A                      A
 Frequencies --    518.7477               527.2381               532.1792
 Red. masses --      4.0029                 4.0768                 5.6796
 Frc consts  --      0.6347                 0.6677                 0.9477
 IR Inten    --      4.4940                 0.0889                 1.7082

                     25                     26                     27
                      A                      A                      A
 Frequencies --    617.5030               628.3777               648.7438
 Red. masses --      4.0947                 3.9658                 3.1214
 Frc consts  --      0.9199                 0.9226                 0.7740
 IR Inten    --      1.6637                 7.9918                 7.6449

                     28                     29                     30
                      A                      A                      A
 Frequencies --    733.6957               737.3183               750.9244
 Red. masses --      1.3373                 1.8374                 5.2075
 Frc consts  --      0.4241                 0.5885                 1.7301
 IR Inten    --      0.4022                60.4799                 0.5214

                     31                     32                     33
                      A                      A                      A
 Frequencies --    767.8508               787.7802               829.1910
 Red. masses --      5.1853                 2.7935                 1.4311
 Frc consts  --      1.8013                 1.0214                 0.5797
 IR Inten    --      2.2904                47.5155                 0.7353

                     34                     35                     36
                      A                      A                      A
 Frequencies --    848.2774               886.5659               922.1615
 Red. masses --      1.5110                 4.3231                 1.2775
 Frc consts  --      0.6406                 2.0020                 0.6401
 IR Inten    --      3.8100                 2.2215                 0.8339

                     37                     38                     39
                      A                      A                      A
 Frequencies --    930.9128               932.4874              1024.4292
 Red. masses --      1.5992                 2.3817                 2.5262
 Frc consts  --      0.8165                 1.2202                 1.5620
 IR Inten    --     10.9238                22.5444                80.8780

                     40                     41                     42
                      A                      A                      A
 Frequencies --   1030.8402              1049.3408              1049.4398
 Red. masses --      3.9996                 1.3980                 1.4004
 Frc consts  --      2.5041                 0.9070                 0.9087
 IR Inten    --     29.1152                11.5493                14.4781

                     43                     44                     45
                      A                      A                      A
 Frequencies --   1075.8280              1079.1119              1097.6562
 Red. masses --      1.2810                 1.2858                 1.8481
 Frc consts  --      0.8735                 0.8822                 1.3119
 IR Inten    --     10.1818                 5.1793                 0.2997

                     46                     47                     48
                      A                      A                      A
 Frequencies --   1103.7160              1118.6996              1122.0734
 Red. masses --      1.6399                 1.4555                 1.4439
 Frc consts  --      1.1770                 1.0732                 1.0711
 IR Inten    --      3.4324                 1.9317                57.1689

                     49                     50                     51
                      A                      A                      A
 Frequencies --   1150.1966              1153.4669              1183.5165
 Red. masses --      1.2642                 1.2583                 1.4973
 Frc consts  --      0.9854                 0.9864                 1.2357
 IR Inten    --      1.0229                 1.9247                15.3731

                     52                     53                     54
                      A                      A                      A
 Frequencies --   1192.9340              1196.7096              1213.3313
 Red. masses --      1.8729                 3.8004                 3.4768
 Frc consts  --      1.5703                 3.2067                 3.0157
 IR Inten    --      9.6707                23.7952                 9.2922

                     55                     56                     57
                      A                      A                      A
 Frequencies --   1220.5756              1313.6394              1316.5176
 Red. masses --      2.1859                 1.9825                 3.2756
 Frc consts  --      1.9187                 2.0156                 3.3450
 IR Inten    --     12.2467                29.9155                30.7705

                     58                     59                     60
                      A                      A                      A
 Frequencies --   1354.2226              1359.6170              1377.9836
 Red. masses --      6.2709                 4.7920                 3.3212
 Frc consts  --      6.7758                 5.2191                 3.7156
 IR Inten    --     30.5627                 6.3585                58.7295

                     61                     62                     63
                      A                      A                      A
 Frequencies --   1395.5053              1396.9841              1412.9082
 Red. masses --      1.1506                 1.1785                 1.5807
 Frc consts  --      1.3202                 1.3550                 1.8592
 IR Inten    --      0.8599                 2.0790                19.9445

                     64                     65                     66
                      A                      A                      A
 Frequencies --   1418.3626              1425.3967              1429.7821
 Red. masses --      1.3802                 1.1225                 1.0624
 Frc consts  --      1.6360                 1.3437                 1.2796
 IR Inten    --      3.0147                 2.7177                 5.5407

                     67                     68                     69
                      A                      A                      A
 Frequencies --   1430.3185              1439.2792              1444.1510
 Red. masses --      1.3361                 1.1336                 1.0528
 Frc consts  --      1.6105                 1.3836                 1.2937
 IR Inten    --      2.5355                 8.4946                35.5536

                     70                     71                     72
                      A                      A                      A
 Frequencies --   1446.7024              1454.7320              1457.9020
 Red. masses --      1.1588                 1.0525                 1.4186
 Frc consts  --      1.4289                 1.3124                 1.7765
 IR Inten    --     21.7425                 6.2476                16.5448

                     73                     74                     75
                      A                      A                      A
 Frequencies --   1476.3763              1480.3608              1513.7563
 Red. masses --      1.1712                 1.1441                 4.2379
 Frc consts  --      1.5041                 1.4772                 5.7215
 IR Inten    --     21.1601                32.1932                35.9661

                     76                     77                     78
                      A                      A                      A
 Frequencies --   1573.7672              1593.2357              1601.1174
 Red. masses --      5.6633                 6.0320                 6.2120
 Frc consts  --      8.2642                 9.0214                 9.3826
 IR Inten    --    195.4278                 5.0042                11.5866

                     79                     80                     81
                      A                      A                      A
 Frequencies --   2869.1740              2869.6900              2888.0146
 Red. masses --      1.0594                 1.0593                 1.0592
 Frc consts  --      5.1383                 5.1395                 5.2051
 IR Inten    --    201.4567                26.3965               270.3756

                     82                     83                     84
                      A                      A                      A
 Frequencies --   2889.7978              3003.7432              3004.3524
 Red. masses --      1.0590                 1.0726                 1.0725
 Frc consts  --      5.2107                 5.7018                 5.7035
 IR Inten    --     57.4317                18.0724                56.9197

                     85                     86                     87
                      A                      A                      A
 Frequencies --   3008.6582              3009.3868              3060.8188
 Red. masses --      1.0819                 1.0816                 1.1023
 Frc consts  --      5.7698                 5.7710                 6.0843
 IR Inten    --     54.4357                18.2313                13.9130

                     88                     89                     90
                      A                      A                      A
 Frequencies --   3060.8596              3110.8493              3111.8809
 Red. masses --      1.1022                 1.0852                 1.0851
 Frc consts  --      6.0842                 6.1874                 6.1913
 IR Inten    --     20.0542                 5.7842                 0.1349

                     91                     92                     93
                      A                      A                      A
 Frequencies --   3116.1659              3116.4507              3127.8155
 Red. masses --      1.0947                 1.0946                 1.0947
 Frc consts  --      6.2630                 6.2634                 6.3098
 IR Inten    --      4.3305                 8.2309                10.0031

                     94                     95                     96
                      A                      A                      A
 Frequencies --   3129.5393              3150.0111              3150.2051
 Red. masses --      1.0939                 1.0914                 1.0912
 Frc consts  --      6.3120                 6.3804                 6.3804
 IR Inten    --     47.5717                17.7919                 4.9078

 - Thermochemistry -
 -------------------
 Temperature   298.150 Kelvin.  Pressure   1.00000 Atm.
 Atom     1 has atomic number  6 and mass  12.00000

 Molecular mass:   214.14700 amu.
 Principal axes and moments of inertia in atomic units:
                           1         2         3
     Eigenvalues --  2871.883462895.148205078.55562
           X            1.00000  -0.00021   0.00001
           Y            0.00021   1.00000  -0.00213
           Z           -0.00001   0.00213   1.00000
 This molecule is an asymmetric top.
 Rotational symmetry number  1.
 Warning -- assumption of classical behavior for rotation
           may cause significant error
 Rotational temperatures (Kelvin)      0.03016     0.02992     0.01705
 Rotational constants (GHZ):           0.62842     0.62337     0.35537
 Zero-point vibrational energy     748869.6 (Joules/Mol)
                                  178.98414 (Kcal/Mol)
 Warning -- explicit consideration of  25 degrees of freedom as
           vibrations may cause significant error
 Vibrational temperatures:     80.96   148.15   171.08   177.99   179.91
          (Kelvin)            209.92   244.36   298.90   340.88   382.49
                              423.63   441.67   443.21   469.04   498.61
                              506.50   545.00   628.78   666.61   673.49
                              740.87   746.36   758.58   765.69   888.45
                              904.09   933.40  1055.62  1060.84  1080.41
                             1104.76  1133.44  1193.02  1220.48  1275.57
                             1326.78  1339.37  1341.64  1473.92  1483.15
                             1509.77  1509.91  1547.87  1552.60  1579.28
                             1588.00  1609.56  1614.41  1654.87  1659.58
                             1702.81  1716.36  1721.80  1745.71  1756.13
                             1890.03  1894.17  1948.42  1956.18  1982.61
                             2007.82  2009.95  2032.86  2040.70  2050.83
                             2057.13  2057.91  2070.80  2077.81  2081.48
                             2093.03  2097.59  2124.17  2129.91  2177.95
                             2264.30  2292.31  2303.65  4128.10  4128.84
                             4155.20  4157.77  4321.71  4322.59  4328.78
                             4329.83  4403.83  4403.89  4475.81  4477.30
                             4483.46  4483.87  4500.22  4502.70  4532.16
                             4532.44

 Zero-point correction=                           0.285229 (Hartree/Particle)
 Thermal correction to Energy=                    0.300551
 Thermal correction to Enthalpy=                  0.301496
 Thermal correction to Gibbs Free Energy=         0.244372
 Sum of electronic and zero-point Energies=           -652.715469
 Sum of electronic and thermal Energies=              -652.700147
 Sum of electronic and thermal Enthalpies=            -652.699203
 Sum of electronic and thermal Free Energies=         -652.756326

                     E (Thermal)             CV                S
                      KCal/Mol        Cal/Mol-Kelvin    Cal/Mol-Kelvin
 Total                  188.599             61.281            120.226
 Electronic               0.000              0.000              0.000
 Translational            0.889              2.981             41.988
 Rotational               0.889              2.981             32.113
 Vibrational            186.821             55.319             46.126
 Vibration     1          0.596              1.975              4.584
 Vibration     2          0.605              1.947              3.397
 Vibration     3          0.609              1.934              3.118
 Vibration     4          0.610              1.929              3.042
 Vibration     5          0.610              1.928              3.021
 Vibration     6          0.617              1.907              2.725
 Vibration     7          0.625              1.880              2.437
 Vibration     8          0.641              1.829              2.063
 Vibration     9          0.656              1.784              1.826
 Vibration    10          0.672              1.736              1.623
 Vibration    11          0.689              1.684              1.448
 Vibration    12          0.697              1.660              1.379
 Vibration    13          0.698              1.658              1.373
 Vibration    14          0.710              1.623              1.280
 Vibration    15          0.725              1.582              1.182
 Vibration    16          0.729              1.571              1.157
 Vibration    17          0.749              1.515              1.044
 Vibration    18          0.797              1.389              0.836
 Vibration    19          0.821              1.331              0.757
 Vibration    20          0.825              1.321              0.743
 Vibration    21          0.870              1.217              0.622
 Vibration    22          0.874              1.208              0.613
 Vibration    23          0.882              1.190              0.593
 Vibration    24          0.887              1.179              0.582
 Vibration    25          0.977              0.995              0.421

 Normal termination of Gaussian 09 at Tue Jun 11 12:43:57 2024.
