 Gaussian 09, Revision E.01,
 Gaussian 09:  ES64L-G09RevE.01 30-Nov-2015

 -----------------------------
 # opt freq pbepbe/6-31+g(d,p)
 -----------------------------

 ----------
 [No Title]
 ----------
 Symbolic Z-matrix:
 Charge =  1 Multiplicity = 1

 SCF Done:  E(RPBE-PBE) =  -653.401366829     A.U. after   16 cycles
 SCF Done:  E(RPBE-PBE) =  -653.402640788     A.U. after   13 cycles
 SCF Done:  E(RPBE-PBE) =  -653.401514995     A.U. after   14 cycles
 SCF Done:  E(RPBE-PBE) =  -653.403067196     A.U. after   11 cycles
 SCF Done:  E(RPBE-PBE) =  -653.403187924     A.U. after   12 cycles
 SCF Done:  E(RPBE-PBE) =  -653.403232112     A.U. after   12 cycles
 SCF Done:  E(RPBE-PBE) =  -653.403107811     A.U. after   12 cycles
 SCF Done:  E(RPBE-PBE) =  -653.403299487     A.U. after   12 cycles
 SCF Done:  E(RPBE-PBE) =  -653.403323682     A.U. after   11 cycles
 SCF Done:  E(RPBE-PBE) =  -653.403326447     A.U. after   10 cycles
 SCF Done:  E(RPBE-PBE) =  -653.403326717     A.U. after    9 cycles
 SCF Done:  E(RPBE-PBE) =  -653.403326751     A.U. after    9 cycles
 SCF Done:  E(RPBE-PBE) =  -653.403326770     A.U. after    8 cycles
 Optimization completed.
    -- Stationary point found.
 Normal termination of Gaussian 09 at Tue Jun 11 17:52:07 2024.

 ----------------------------------------------------------------------
 #N Geom=AllCheck Guess=TCheck SCRF=Check GenChk RPBEPBE/6-31+G(d,p) Fr
 eq
 ----------------------------------------------------------------------

 Structure from the checkpoint file:  "pbeDMANyang.chk"
 ----------
 [No Title]
 ----------
 Charge =  1 Multiplicity = 1

                         Standard orientation:
 ---------------------------------------------------------------------
 Center     Atomic      Atomic             Coordinates (Angstroms)
 Number     Number       Type             X           Y           Z
 ---------------------------------------------------------------------
      1          6           0       -0.750583   -2.453197   -0.000069
      2          6           0       -2.166935   -2.418064   -0.000051
      3          6           0       -2.824851   -1.200145   -0.000004
      4          6           0       -2.104465    0.029127    0.000026
      5          6           0       -0.656392    0.011733    0.000004
      6          6           0       -0.023405   -1.274308   -0.000042
      7          6           0       -2.791659    1.276854    0.000079
      8          6           0       -2.096431    2.473591    0.000111
      9          6           0       -0.679539    2.467467    0.000090
     10          6           0        0.027843    1.274073    0.000036
     11          7           0        1.458748   -1.312770   -0.000053
     12          7           0        1.499905    1.269247    0.000008
     13          6           0        2.026085   -1.931880    1.238263
     14          6           0        2.026069   -1.931836   -1.238399
     15          6           0        2.073286    1.884071   -1.228010
     16          6           0        2.073339    1.883983    1.228044
     17          1           0       -0.237582   -3.419813   -0.000102
     18          1           0       -2.729756   -3.354806   -0.000073
     19          1           0       -3.918387   -1.163944    0.000013
     20          1           0       -3.885729    1.271455    0.000095
     21          1           0       -2.632062    3.426423    0.000153
     22          1           0       -0.140697    3.419898    0.000114
     23          1           0        1.697827   -0.151458   -0.000036
     24          1           0        3.118884   -1.803823    1.230140
     25          1           0        1.597023   -1.432160    2.117603
     26          1           0        1.785251   -3.005019    1.277804
     27          1           0        3.118868   -1.803777   -1.230287
     28          1           0        1.596994   -1.432086   -2.117716
     29          1           0        1.785237   -3.004974   -1.277976
     30          1           0        1.634779    1.407362   -2.116880
     31          1           0        1.871138    2.968666   -1.273480
     32          1           0        3.163676    1.729105   -1.229848
     33          1           0        1.634864    1.407215    2.116899
     34          1           0        3.163727    1.729009    1.229829
     35          1           0        1.871201    2.968575    1.273599
 ---------------------------------------------------------------------

 SCF Done:  E(RPBE-PBE) =  -653.403326770     A.U. after    1 cycles

 The electronic state is 1-A.
 Alpha  occ. eigenvalues --  -14.23218 -14.19448 -10.09091 -10.08283 -10.08267
 Alpha  occ. eigenvalues --  -10.08267 -10.06603 -10.06593 -10.06592 -10.05408
 Alpha  occ. eigenvalues --  -10.05179 -10.04533 -10.04062 -10.03984 -10.03778
 Alpha  occ. eigenvalues --  -10.03725  -1.04828  -1.00840  -0.92769  -0.87961
 Alpha  occ. eigenvalues --   -0.83928  -0.81185  -0.80698  -0.79298  -0.78718
 Alpha  occ. eigenvalues --   -0.75256  -0.73047  -0.70198  -0.68454  -0.65844
 Alpha  occ. eigenvalues --   -0.62181  -0.61097  -0.60265  -0.58249  -0.57893
 Alpha  occ. eigenvalues --   -0.56924  -0.55708  -0.54699  -0.54081  -0.52299
 Alpha  occ. eigenvalues --   -0.51361  -0.51123  -0.50190  -0.49665  -0.49354
 Alpha  occ. eigenvalues --   -0.48879  -0.48377  -0.47981  -0.47088  -0.47001
 Alpha  occ. eigenvalues --   -0.46143  -0.43675  -0.43310  -0.42580  -0.39045
 Alpha  occ. eigenvalues --   -0.35939  -0.35779  -0.33062
 Alpha virt. eigenvalues --   -0.21146  -0.18106  -0.15028  -0.14150  -0.11469
 Alpha virt. eigenvalues --   -0.10898  -0.10732  -0.10729  -0.09909  -0.09099
 Alpha virt. eigenvalues --   -0.08676  -0.08342  -0.07934  -0.07736  -0.07111

 Mulliken charges:
               1
     1  C   -0.118347
     2  C   -0.282314
     3  C   -0.050481
     4  C   -0.477109
     5  C   -0.019192
     6  C   -0.131624
     7  C   -0.066524
     8  C   -0.278091
     9  C   -0.121305
    10  C   -0.164706
    11  N   -0.232269
    12  N   -0.258901
    13  C   -0.186380
    14  C   -0.186372
    15  C   -0.180466
    16  C   -0.180464
    17  H    0.160798
    18  H    0.178556
    19  H    0.172875
    20  H    0.171883
    21  H    0.177624
    22  H    0.161428
    23  H    0.485496
    24  H    0.204223
    25  H    0.210382
    26  H    0.210311
    27  H    0.204223
    28  H    0.210383
    29  H    0.210311
    30  H    0.195932
    31  H    0.198660
    32  H    0.193435
    33  H    0.195931
    34  H    0.193436
    35  H    0.198660
 Sum of Mulliken charges =   1.00000

 Dipole moment (field-independent basis, Debye):
    X=              3.8965    Y=             -1.0037    Z=             -0.0001  Tot=              4.0237
 Quadrupole moment (field-independent basis, Debye-Ang):
   XX=            -62.8798   YY=            -64.8128   ZZ=            -91.9757
   XY=             -1.9445   XZ=             -0.0004   YZ=              0.0008

  Exact polarizability: 203.655   0.640 221.591  -0.001   0.003 113.796
 Approx polarizability: 382.944   1.213 470.336  -0.003   0.009 192.943

                      1                      2                      3
                      A                      A                      A
 Frequencies --     28.2900                91.3408               126.6035
 Red. masses --      3.5102                 2.7196                 3.2674
 Frc consts  --      0.0017                 0.0134                 0.0309
 IR Inten    --      0.0332                 0.1174                 0.3888

                      4                      5                      6
                      A                      A                      A
 Frequencies --    147.1543               164.3084               172.1651
 Red. masses --      2.2913                 2.6917                 3.2674
 Frc consts  --      0.0292                 0.0428                 0.0571
 IR Inten    --      0.0550                49.4337                 3.8164

                      7                      8                      9
                      A                      A                      A
 Frequencies --    185.9789               217.8868               223.1121
 Red. masses --      3.7356                 1.1222                 1.3760
 Frc consts  --      0.0761                 0.0314                 0.0404
 IR Inten    --      0.1101                 0.0230                 0.0496

                     10                     11                     12
                      A                      A                      A
 Frequencies --    234.9226               253.3684               254.3382
 Red. masses --      1.0799                 1.2365                 2.2017
 Frc consts  --      0.0351                 0.0468                 0.0839
 IR Inten    --      0.0286                 3.9416                 1.4234

                     13                     14                     15
                      A                      A                      A
 Frequencies --    265.9470               310.4099               310.6788
 Red. masses --      2.0660                 2.6607                 3.3546
 Frc consts  --      0.0861                 0.1510                 0.1908
 IR Inten    --      0.6223                 7.9764                 0.0709

                     16                     17                     18
                      A                      A                      A
 Frequencies --    368.5880               410.1091               436.2537
 Red. masses --      3.6911                 2.7557                 2.9910
 Frc consts  --      0.2955                 0.2731                 0.3354
 IR Inten    --     12.8000               119.4551                 0.5780

                     19                     20                     21
                      A                      A                      A
 Frequencies --    458.8119               480.4331               507.7926
 Red. masses --      3.3656                 4.1678                 4.3469
 Frc consts  --      0.4174                 0.5668                 0.6604
 IR Inten    --      0.4890                98.4809                31.3440

                     22                     23                     24
                      A                      A                      A
 Frequencies --    520.6610               521.1402               551.2980
 Red. masses --      3.6197                 5.1074                 3.9035
 Frc consts  --      0.5781                 0.8173                 0.6990
 IR Inten    --      0.0075                 7.3428                 0.2345

                     25                     26                     27
                      A                      A                      A
 Frequencies --    624.0826               640.9724               643.2847
 Red. masses --      4.1316                 3.2033                 3.1419
 Frc consts  --      0.9481                 0.7754                 0.7660
 IR Inten    --      0.1059               232.3881                 0.0404

                     28                     29                     30
                      A                      A                      A
 Frequencies --    745.3384               750.7430               757.6771
 Red. masses --      4.5931                 2.1974                 1.2960
 Frc consts  --      1.5034                 0.7297                 0.4383
 IR Inten    --     15.1783                59.1026                 0.1073

                     31                     32                     33
                      A                      A                      A
 Frequencies --    771.2649               810.9841               834.8016
 Red. masses --      5.2493                 2.2072                 3.0260
 Frc consts  --      1.8398                 0.8553                 1.2425
 IR Inten    --      0.4223                31.9159               317.2709

                     34                     35                     36
                      A                      A                      A
 Frequencies --    887.5336               888.7220               906.4130
 Red. masses --      1.3700                 3.8273                 1.4475
 Frc consts  --      0.6358                 1.7810                 0.7007
 IR Inten    --      0.1202                47.3792                 2.4074

                     37                     38                     39
                      A                      A                      A
 Frequencies --    951.4377               955.7692               966.8325
 Red. masses --      2.3886                 1.3193                 1.3374
 Frc consts  --      1.2740                 0.7101                 0.7366
 IR Inten    --    193.2144                 0.0053                 0.3933

                     40                     41                     42
                      A                      A                      A
 Frequencies --    991.7453              1004.0898              1005.2685
 Red. masses --      2.0158                 2.8782                 1.8385
 Frc consts  --      1.1682                 1.7097                 1.0946
 IR Inten    --     10.8212                26.4262                13.5885

                     43                     44                     45
                      A                      A                      A
 Frequencies --   1042.3264              1050.1110              1069.3453
 Red. masses --      2.0644                 1.2152                 1.2513
 Frc consts  --      1.3215                 0.7896                 0.8430
 IR Inten    --    273.1148                 0.4866                 0.5108

                     46                     47                     48
                      A                      A                      A
 Frequencies --   1083.6204              1100.5982              1143.2565
 Red. masses --      1.7971                 1.7911                 2.2655
 Frc consts  --      1.2433                 1.2783                 1.7446
 IR Inten    --      2.3484               127.9000                 4.2339

                     49                     50                     51
                      A                      A                      A
 Frequencies --   1150.2679              1154.5969              1159.3894
 Red. masses --      1.4541                 2.7256                 1.2292
 Frc consts  --      1.1336                 2.1408                 0.9735
 IR Inten    --      4.2223                 5.3682                20.0158

                     52                     53                     54
                      A                      A                      A
 Frequencies --   1168.9669              1179.3419              1195.5977
 Red. masses --      1.3609                 1.3750                 1.6946
 Frc consts  --      1.0957                 1.1268                 1.4272
 IR Inten    --     22.6194                54.7906                34.3555

                     55                     56                     57
                      A                      A                      A
 Frequencies --   1222.0617              1234.1040              1250.2157
 Red. masses --      1.8225                 2.5120                 2.4958
 Frc consts  --      1.6037                 2.2541                 2.2984
 IR Inten    --      1.6187                18.4026                60.9651

                     58                     59                     60
                      A                      A                      A
 Frequencies --   1262.0023              1362.9447              1377.2002
 Red. masses --      1.9909                 2.4797                 5.4105
 Frc consts  --      1.8682                 2.7140                 6.0462
 IR Inten    --    219.4767                49.7099                 0.3162

                     61                     62                     63
                      A                      A                      A
 Frequencies --   1382.1250              1391.0711              1395.4724
 Red. masses --      5.1149                 1.1408                 1.1389
 Frc consts  --      5.7568                 1.3007                 1.3067
 IR Inten    --      3.1291                 0.4486                10.3364

                     64                     65                     66
                      A                      A                      A
 Frequencies --   1424.1047              1428.8694              1430.5796
 Red. masses --      1.3751                 1.5639                 1.0401
 Frc consts  --      1.6431                 1.8812                 1.2541
 IR Inten    --      1.6657                 3.3135                 0.0410

                     67                     68                     69
                      A                      A                      A
 Frequencies --   1435.3418              1439.7614              1445.5938
 Red. masses --      1.3289                 1.0464                 1.0427
 Frc consts  --      1.6131                 1.2780                 1.2839
 IR Inten    --     21.2454                 3.0400                 2.1901

                     70                     71                     72
                      A                      A                      A
 Frequencies --   1452.0565              1456.8087              1458.4817
 Red. masses --      1.0424                 1.2672                 1.4118
 Frc consts  --      1.2950                 1.5846                 1.7694
 IR Inten    --     15.8156                53.5656                11.6895

                     73                     74                     75
                      A                      A                      A
 Frequencies --   1461.5523              1471.1550              1472.2034
 Red. masses --      1.1066                 1.3150                 1.0598
 Frc consts  --      1.3928                 1.6769                 1.3533
 IR Inten    --     46.8004               190.0062                26.6967

                     76                     77                     78
                      A                      A                      A
 Frequencies --   1518.2981              1576.7044              1601.1203
 Red. masses --      3.5685                 7.3442                 4.9714
 Frc consts  --      4.8467                10.7572                 7.5089
 IR Inten    --     64.3416                 5.9023                33.8167

                     79                     80                     81
                      A                      A                      A
 Frequencies --   1625.6834              1646.8717              1791.9900
 Red. masses --      6.7408                 1.0738                 1.0976
 Frc consts  --     10.4962                 1.7159                 2.0766
 IR Inten    --      7.9959                 1.3720               165.5747

                     82                     83                     84
                      A                      A                      A
 Frequencies --   2976.6710              2980.0289              3002.6831
 Red. masses --      1.0351                 1.0361                 1.0315
 Frc consts  --      5.4039                 5.4213                 5.4797
 IR Inten    --     15.9378                19.3295                 6.9304

                     85                     86                     87
                      A                      A                      A
 Frequencies --   3005.8435              3059.2403              3059.6821
 Red. masses --      1.0324                 1.1004                 1.1019
 Frc consts  --      5.4956                 6.0678                 6.0775
 IR Inten    --      7.9995                16.3729                 0.6217

                     88                     89                     90
                      A                      A                      A
 Frequencies --   3092.0624              3093.4565              3093.6472
 Red. masses --      1.1050                 1.1052                 1.1068
 Frc consts  --      6.2244                 6.2313                 6.2410
 IR Inten    --      2.9132                14.4554                 0.0670

                     91                     92                     93
                      A                      A                      A
 Frequencies --   3094.2826              3111.0628              3112.0824
 Red. masses --      1.1057                 1.1058                 1.1064
 Frc consts  --      6.2373                 6.3060                 6.3135
 IR Inten    --      5.1245                 1.1175                 5.7442

                     94                     95                     96
                      A                      A                      A
 Frequencies --   3128.7302              3129.1852              3134.5136
 Red. masses --      1.0889                 1.0881                 1.0905
 Frc consts  --      6.2802                 6.2775                 6.3128
 IR Inten    --      3.3675                 1.8644                 0.0549

                     97                     98                     99
                      A                      A                      A
 Frequencies --   3136.0035              3153.7530              3156.3347
 Red. masses --      1.0902                 1.0969                 1.0965
 Frc consts  --      6.3168                 6.4278                 6.4363
 IR Inten    --      3.1212                 1.4243                 0.8727

 - Thermochemistry -
 -------------------
 Temperature   298.150 Kelvin.  Pressure   1.00000 Atm.
 Atom     1 has atomic number  6 and mass  12.00000

 Molecular mass:   215.15482 amu.
 Principal axes and moments of inertia in atomic units:
                           1         2         3
     Eigenvalues --  2843.683083023.654995126.49909
           X            1.00000  -0.00170   0.00001
           Y            0.00170   1.00000  -0.00003
           Z           -0.00001   0.00003   1.00000
 This molecule is an asymmetric top.
 Rotational symmetry number  1.
 Warning -- assumption of classical behavior for rotation
           may cause significant error
 Rotational temperatures (Kelvin)      0.03046     0.02865     0.01690
 Rotational constants (GHZ):           0.63465     0.59687     0.35204
 Zero-point vibrational energy     780022.7 (Joules/Mol)
                                  186.42989 (Kcal/Mol)
 Warning -- explicit consideration of  24 degrees of freedom as
           vibrations may cause significant error
 Vibrational temperatures:     40.70   131.42   182.15   211.72   236.40
          (Kelvin)            247.71   267.58   313.49   321.01   338.00
                              364.54   365.94   382.64   446.61   447.00
                              530.32   590.05   627.67   660.13   691.24
                              730.60   749.11   749.80   793.19   897.91
                              922.22   925.54  1072.37  1080.15  1090.13
                             1109.68  1166.82  1201.09  1276.96  1278.67
                             1304.12  1368.90  1375.14  1391.05  1426.90
                             1444.66  1446.36  1499.67  1510.87  1538.55
                             1559.09  1583.51  1644.89  1654.98  1661.21
                             1668.10  1681.88  1696.81  1720.20  1758.27
                             1775.60  1798.78  1815.74  1960.97  1981.48
                             1988.57  2001.44  2007.77  2048.97  2055.82
                             2058.28  2065.13  2071.49  2079.88  2089.18
                             2096.02  2098.43  2102.85  2116.66  2118.17
                             2184.49  2268.52  2303.65  2338.99  2369.48
                             2578.27  4282.76  4287.59  4320.19  4324.73
                             4401.56  4402.19  4448.78  4450.79  4451.06
                             4451.98  4476.12  4477.59  4501.54  4502.19
                             4509.86  4512.00  4537.54  4541.26

 Zero-point correction=                           0.297095 (Hartree/Particle)
 Thermal correction to Energy=                    0.312553
 Thermal correction to Enthalpy=                  0.313497
 Thermal correction to Gibbs Free Energy=         0.255735
 Sum of electronic and zero-point Energies=           -653.106232
 Sum of electronic and thermal Energies=              -653.090774
 Sum of electronic and thermal Enthalpies=            -653.089830
 Sum of electronic and thermal Free Energies=         -653.147592

                     E (Thermal)             CV                S
                      KCal/Mol        Cal/Mol-Kelvin    Cal/Mol-Kelvin
 Total                  196.130             61.842            121.572
 Electronic               0.000              0.000              0.000
 Translational            0.889              2.981             42.002
 Rotational               0.889              2.981             32.155
 Vibrational            194.353             55.881             47.414
 Vibration     1          0.593              1.984              5.946
 Vibration     2          0.602              1.955              3.631
 Vibration     3          0.611              1.927              2.997
 Vibration     4          0.617              1.906              2.709
 Vibration     5          0.623              1.886              2.500
 Vibration     6          0.626              1.877              2.412
 Vibration     7          0.632              1.859              2.268
 Vibration     8          0.646              1.814              1.977
 Vibration     9          0.649              1.806              1.934
 Vibration    10          0.655              1.787              1.841
 Vibration    11          0.665              1.757              1.707
 Vibration    12          0.665              1.755              1.700
 Vibration    13          0.672              1.736              1.622
 Vibration    14          0.699              1.654              1.360
 Vibration    15          0.700              1.653              1.359
 Vibration    16          0.741              1.537              1.086
 Vibration    17          0.774              1.448              0.926
 Vibration    18          0.797              1.391              0.838
 Vibration    19          0.817              1.341              0.770
 Vibration    20          0.837              1.293              0.709
 Vibration    21          0.863              1.233              0.639
 Vibration    22          0.876              1.204              0.608
 Vibration    23          0.876              1.203              0.607
 Vibration    24          0.907              1.137              0.541

 Optimization completed.
    -- Stationary point found.
 Normal termination of Gaussian 09 at Tue Jun 11 18:03:07 2024.
