 Gaussian 09, Revision E.01,
 Gaussian 09:  ES64L-G09RevE.01 30-Nov-2015

 -----------------------------
 # opt freq wb97xd/6-31+g(d,p)
 -----------------------------

 ----------
 [No Title]
 ----------
 Symbolic Z-matrix:
 Charge =  0 Multiplicity = 1

 SCF Done:  E(RwB97XD) =  -653.640559480     A.U. after   16 cycles
 SCF Done:  E(RwB97XD) =  -653.640848569     A.U. after   13 cycles
 SCF Done:  E(RwB97XD) =  -653.640803304     A.U. after   13 cycles
 SCF Done:  E(RwB97XD) =  -653.640866536     A.U. after   13 cycles
 SCF Done:  E(RwB97XD) =  -653.640880945     A.U. after   12 cycles
 SCF Done:  E(RwB97XD) =  -653.640882318     A.U. after   10 cycles
 SCF Done:  E(RwB97XD) =  -653.640883799     A.U. after   11 cycles
 SCF Done:  E(RwB97XD) =  -653.640883141     A.U. after   12 cycles
 SCF Done:  E(RwB97XD) =  -653.640885825     A.U. after   11 cycles
 SCF Done:  E(RwB97XD) =  -653.640886846     A.U. after   12 cycles
 SCF Done:  E(RwB97XD) =  -653.640886969     A.U. after   10 cycles
 SCF Done:  E(RwB97XD) =  -653.640887155     A.U. after   10 cycles
 SCF Done:  E(RwB97XD) =  -653.640887200     A.U. after   10 cycles
 Optimization completed.
    -- Stationary point found.
 Normal termination of Gaussian 09 at Tue Jun 11 13:04:28 2024.

 ----------------------------------------------------------------------
 #N Geom=AllCheck Guess=TCheck SCRF=Check GenChk RwB97XD/6-31+G(d,p) Fr
 eq
 ----------------------------------------------------------------------

 Structure from the checkpoint file:  "wb97xdDMAN.chk"
 ----------
 [No Title]
 ----------
 Charge =  0 Multiplicity = 1

                         Standard orientation:
 ---------------------------------------------------------------------
 Center     Atomic      Atomic             Coordinates (Angstroms)
 Number     Number       Type             X           Y           Z
 ---------------------------------------------------------------------
      1          6           0        0.685189    2.433164    0.199943
      2          6           0        2.087090    2.393355    0.337589
      3          6           0        2.753814    1.209519    0.190517
      4          6           0        2.034524   -0.000439    0.000028
      5          6           0        0.604853   -0.000157    0.000043
      6          6           0       -0.060093    1.286965   -0.016247
      7          6           0        2.753341   -1.210669   -0.190497
      8          6           0        2.086135   -2.394227   -0.337609
      9          6           0        0.684218   -2.433490   -0.199975
     10          6           0       -0.060642   -1.287001    0.016274
     11          7           0       -1.443499    1.372941   -0.260884
     12          7           0       -1.444088   -1.372381    0.260920
     13          6           0       -1.901076    0.881325   -1.551887
     14          6           0       -2.129417    2.582118    0.133476
     15          6           0       -2.130713   -2.581136   -0.133517
     16          6           0       -1.901520   -0.880511    1.551876
     17          1           0        0.194291    3.398954    0.205398
     18          1           0        2.630950    3.318546    0.502028
     19          1           0        3.838565    1.170603    0.225386
     20          1           0        3.838105   -1.172177   -0.225377
     21          1           0        2.629623   -3.319629   -0.502083
     22          1           0        0.192968   -3.399092   -0.205452
     23          1           0       -1.296324    0.037166   -1.878167
     24          1           0       -2.939842    0.543285   -1.473431
     25          1           0       -1.840844    1.670817   -2.320660
     26          1           0       -1.877660    2.841413    1.165434
     27          1           0       -1.907770    3.450097   -0.513957
     28          1           0       -3.207523    2.400442    0.080916
     29          1           0       -1.879229   -2.840467   -1.165530
     30          1           0       -1.909501   -3.449301    0.513814
     31          1           0       -3.208709   -2.398841   -0.080833
     32          1           0       -1.296176   -0.036849    1.878334
     33          1           0       -2.940014   -0.541670    1.473272
     34          1           0       -1.842019   -1.670128    2.320575
 ---------------------------------------------------------------------

 SCF Done:  E(RwB97XD) =  -653.640887200     A.U. after    1 cycles

 The electronic state is 1-A.
 Alpha  occ. eigenvalues --  -14.45710 -14.45710 -10.34044 -10.34044 -10.32129
 Alpha  occ. eigenvalues --  -10.32129 -10.31483 -10.31482 -10.31171 -10.31011
 Alpha  occ. eigenvalues --  -10.30059 -10.30059 -10.29377 -10.29376 -10.29370
 Alpha  occ. eigenvalues --  -10.29370  -1.05090  -1.03392  -0.96244  -0.91434
 Alpha  occ. eigenvalues --   -0.86398  -0.84127  -0.82148  -0.80835  -0.80575
 Alpha  occ. eigenvalues --   -0.74801  -0.74785  -0.70459  -0.69090  -0.64968
 Alpha  occ. eigenvalues --   -0.60872  -0.59989  -0.59043  -0.56721  -0.56055
 Alpha  occ. eigenvalues --   -0.55099  -0.54434  -0.53854  -0.52727  -0.50662
 Alpha  occ. eigenvalues --   -0.49463  -0.48941  -0.48040  -0.47694  -0.47349
 Alpha  occ. eigenvalues --   -0.46512  -0.46245  -0.45364  -0.45119  -0.44943
 Alpha  occ. eigenvalues --   -0.42132  -0.41471  -0.41074  -0.36854  -0.33625
 Alpha  occ. eigenvalues --   -0.31400  -0.27508  -0.25514
 Alpha virt. eigenvalues --    0.02947   0.05032   0.06247   0.06964   0.07527
 Alpha virt. eigenvalues --    0.07927   0.08713   0.08828   0.09505   0.09810
 Alpha virt. eigenvalues --    0.10708   0.10907   0.10991   0.11239   0.11899

 Mulliken charges:
               1
     1  C   -0.313767
     2  C   -0.298214
     3  C   -0.308841
     4  C    0.080370
     5  C    0.107790
     6  C   -0.016681
     7  C   -0.308805
     8  C   -0.298280
     9  C   -0.313964
    10  C   -0.016601
    11  N   -0.060073
    12  N   -0.060083
    13  C   -0.195755
    14  C   -0.241335
    15  C   -0.241360
    16  C   -0.195714
    17  H    0.137804
    18  H    0.150311
    19  H    0.146979
    20  H    0.146981
    21  H    0.150311
    22  H    0.137806
    23  H    0.167313
    24  H    0.145780
    25  H    0.136007
    26  H    0.162257
    27  H    0.142736
    28  H    0.151472
    29  H    0.162260
    30  H    0.142739
    31  H    0.151473
    32  H    0.167298
    33  H    0.145785
    34  H    0.136001
 Sum of Mulliken charges =  -0.00000

 Dipole moment (field-independent basis, Debye):
    X=             -1.6445    Y=              0.0004    Z=             -0.0001  Tot=              1.6445
 Quadrupole moment (field-independent basis, Debye-Ang):
   XX=            -89.6289   YY=            -89.1479   ZZ=           -100.9153
   XY=              0.0003   XZ=              0.0006   YZ=              1.7070

  Exact polarizability: 214.817   0.002 218.439   0.000   6.064 120.397
 Approx polarizability: 231.695   0.003 240.503   0.002  11.656 139.401

                      1                      2                      3
                      A                      A                      A
 Frequencies --     59.1988                79.7954                87.5489
 Red. masses --      3.8042                 2.1692                 1.8981
 Frc consts  --      0.0079                 0.0081                 0.0086
 IR Inten    --      0.9110                 0.2924                 3.9751

                      4                      5                      6
                      A                      A                      A
 Frequencies --    128.1387               130.1634               152.1723
 Red. masses --      3.0735                 3.2591                 3.3054
 Frc consts  --      0.0297                 0.0325                 0.0451
 IR Inten    --      0.0708                 1.5439                 1.9896

                      7                      8                      9
                      A                      A                      A
 Frequencies --    193.5470               217.8287               288.9912
 Red. masses --      2.0313                 2.7403                 1.2237
 Frc consts  --      0.0448                 0.0766                 0.0602
 IR Inten    --      0.9603                 0.0675                 1.5669

                     10                     11                     12
                      A                      A                      A
 Frequencies --    295.8246               300.0756               324.6858
 Red. masses --      1.1829                 1.6836                 2.6525
 Frc consts  --      0.0610                 0.0893                 0.1647
 IR Inten    --      0.0384                 4.3283                 2.0879

                     13                     14                     15
                      A                      A                      A
 Frequencies --    329.0294               345.4980               372.6550
 Red. masses --      2.9700                 1.8994                 2.3047
 Frc consts  --      0.1894                 0.1336                 0.1886
 IR Inten    --      2.6433                 0.1663                 0.5106

                     16                     17                     18
                      A                      A                      A
 Frequencies --    384.2934               407.8508               475.9483
 Red. masses --      2.8942                 2.8513                 2.7331
 Frc consts  --      0.2518                 0.2794                 0.3648
 IR Inten    --      4.3585                 3.7025                 1.1329

                     19                     20                     21
                      A                      A                      A
 Frequencies --    485.3786               488.6591               542.6957
 Red. masses --      4.5505                 3.4434                 3.7436
 Frc consts  --      0.6316                 0.4845                 0.6496
 IR Inten    --      4.1108                 2.2398                 1.4267

                     22                     23                     24
                      A                      A                      A
 Frequencies --    543.1763               552.7864               555.3421
 Red. masses --      4.2852                 3.9373                 5.4085
 Frc consts  --      0.7449                 0.7089                 0.9828
 IR Inten    --      5.1110                 0.0291                 2.3222

                     25                     26                     27
                      A                      A                      A
 Frequencies --    644.5799               661.9384               682.3630
 Red. masses --      4.0741                 3.7353                 2.8396
 Frc consts  --      0.9973                 0.9643                 0.7790
 IR Inten    --      2.0632                10.0608                 8.4510

                     28                     29                     30
                      A                      A                      A
 Frequencies --    772.9210               781.5013               783.7268
 Red. masses --      1.3606                 1.7731                 4.3242
 Frc consts  --      0.4789                 0.6380                 1.5649
 IR Inten    --      0.1116                73.6899                 3.7507

                     31                     32                     33
                      A                      A                      A
 Frequencies --    798.5155               843.2654               884.4752
 Red. masses --      5.3812                 3.4383                 1.4641
 Frc consts  --      2.0216                 1.4405                 0.6748
 IR Inten    --      3.2913                42.7259                 0.1354

                     34                     35                     36
                      A                      A                      A
 Frequencies --    900.8543               929.1071               979.2400
 Red. masses --      1.5369                 4.4344                 3.7200
 Frc consts  --      0.7349                 2.2554                 2.1017
 IR Inten    --      1.8605                 0.9091                30.0489

                     37                     38                     39
                      A                      A                      A
 Frequencies --    991.2426               999.4765              1069.0462
 Red. masses --      1.3086                 1.3231                 4.2147
 Frc consts  --      0.7576                 0.7787                 2.8380
 IR Inten    --      0.4872                 0.3772                31.1322

                     40                     41                     42
                      A                      A                      A
 Frequencies --   1072.4312              1107.9299              1108.6885
 Red. masses --      2.4809                 1.4045                 1.3880
 Frc consts  --      1.6811                 1.0157                 1.0052
 IR Inten    --     81.9536                19.1466                 4.9026

                     43                     44                     45
                      A                      A                      A
 Frequencies --   1131.5518              1132.2797              1148.4688
 Red. masses --      1.3006                 1.2387                 1.8424
 Frc consts  --      0.9811                 0.9357                 1.4318
 IR Inten    --      4.3834                 6.1431                 0.4670

                     46                     47                     48
                      A                      A                      A
 Frequencies --   1150.6073              1178.2641              1182.7724
 Red. masses --      1.6539                 1.4057                 1.4245
 Frc consts  --      1.2901                 1.1498                 1.1741
 IR Inten    --      4.3094                 2.9492                49.8509

                     49                     50                     51
                      A                      A                      A
 Frequencies --   1189.2378              1208.2437              1230.2955
 Red. masses --      1.4786                 1.2856                 2.4078
 Frc consts  --      1.2321                 1.1058                 2.1473
 IR Inten    --      2.0713                 5.8312                11.6163

                     52                     53                     54
                      A                      A                      A
 Frequencies --   1259.9224              1262.6154              1279.8730
 Red. masses --      1.5297                 1.7665                 3.3559
 Frc consts  --      1.4307                 1.6592                 3.2389
 IR Inten    --      5.0281                20.4275                42.7437

                     55                     56                     57
                      A                      A                      A
 Frequencies --   1281.1284              1365.0204              1388.2839
 Red. masses --      4.0374                 3.3086                 1.8892
 Frc consts  --      3.9043                 3.6322                 2.1453
 IR Inten    --      4.5503                 5.8362                40.1217

                     58                     59                     60
                      A                      A                      A
 Frequencies --   1405.2938              1408.0395              1447.2450
 Red. masses --      3.1059                 7.1073                 2.7567
 Frc consts  --      3.6138                 8.3020                 3.4019
 IR Inten    --     28.0113                19.0534                68.3746

                     61                     62                     63
                      A                      A                      A
 Frequencies --   1465.3109              1468.4248              1478.2550
 Red. masses --      1.1600                 1.2365                 1.8642
 Frc consts  --      1.4675                 1.5708                 2.4001
 IR Inten    --      0.2092                19.6081                18.7268

                     64                     65                     66
                      A                      A                      A
 Frequencies --   1488.3031              1489.1169              1496.1659
 Red. masses --      1.0735                 1.1955                 1.1061
 Frc consts  --      1.4010                 1.5620                 1.4588
 IR Inten    --      6.0739                 4.4596                14.1707

                     67                     68                     69
                      A                      A                      A
 Frequencies --   1499.4548              1501.2576              1508.9224
 Red. masses --      1.1756                 1.0730                 1.0510
 Frc consts  --      1.5573                 1.4248                 1.4098
 IR Inten    --     11.6448                 5.6726                11.8844

                     70                     71                     72
                      A                      A                      A
 Frequencies --   1523.2559              1529.9748              1534.5335
 Red. masses --      1.5258                 1.1297                 1.3513
 Frc consts  --      2.0859                 1.5580                 1.8748
 IR Inten    --     10.3184                10.0238                30.7663

                     73                     74                     75
                      A                      A                      A
 Frequencies --   1551.4472              1555.9309              1582.2426
 Red. masses --      1.0854                 1.1024                 3.7823
 Frc consts  --      1.5392                 1.5725                 5.5789
 IR Inten    --      3.9374                41.2201                30.2222

                     76                     77                     78
                      A                      A                      A
 Frequencies --   1663.7986              1677.3874              1695.9149
 Red. masses --      5.6842                 5.4286                 6.0863
 Frc consts  --      9.2709                 8.9992                10.3136
 IR Inten    --    230.2990                 0.5030                16.4330

                     79                     80                     81
                      A                      A                      A
 Frequencies --   2960.5668              2961.1886              2978.5158
 Red. masses --      1.0579                 1.0578                 1.0577
 Frc consts  --      5.4630                 5.4651                 5.5287
 IR Inten    --    187.0498                20.3050               230.1948

                     82                     83                     84
                      A                      A                      A
 Frequencies --   2980.0873              3091.6557              3091.9973
 Red. masses --      1.0573                 1.0747                 1.0748
 Frc consts  --      5.5323                 6.0524                 6.0540
 IR Inten    --     47.8703                25.2486                51.8792

                     85                     86                     87
                      A                      A                      A
 Frequencies --   3096.2239              3097.5677              3144.5884
 Red. masses --      1.0845                 1.0840                 1.1040
 Frc consts  --      6.1254                 6.1282                 6.4318
 IR Inten    --     57.2323                23.2974                20.1857

                     88                     89                     90
                      A                      A                      A
 Frequencies --   3144.6489              3202.7595              3203.3628
 Red. masses --      1.1040                 1.0953                 1.0951
 Frc consts  --      6.4323                 6.6195                 6.6208
 IR Inten    --     22.5195                10.0148                12.4769

                     91                     92                     93
                      A                      A                      A
 Frequencies --   3210.8909              3212.3436              3229.8015
 Red. masses --      1.0868                 1.0865                 1.0960
 Frc consts  --      6.6014                 6.6057                 6.7361
 IR Inten    --      3.2703                 0.2414                13.0904

                     94                     95                     96
                      A                      A                      A
 Frequencies --   3231.1029              3257.7966              3257.8823
 Red. masses --      1.0956                 1.0921                 1.0919
 Frc consts  --      6.7389                 6.8288                 6.8279
 IR Inten    --     47.1081                20.2907                 2.8009

 - Thermochemistry -
 -------------------
 Temperature   298.150 Kelvin.  Pressure   1.00000 Atm.
 Atom     1 has atomic number  6 and mass  12.00000

 Molecular mass:   214.14700 amu.
 Principal axes and moments of inertia in atomic units:
                           1         2         3
     Eigenvalues --  2797.013192866.601205013.49746
           X            1.00000   0.00004  -0.00000
           Y           -0.00004   1.00000  -0.00126
           Z            0.00000   0.00126   1.00000
 This molecule is an asymmetric top.
 Rotational symmetry number  1.
 Warning -- assumption of classical behavior for rotation
           may cause significant error
 Rotational temperatures (Kelvin)      0.03097     0.03021     0.01728
 Rotational constants (GHZ):           0.64524     0.62958     0.35998
 Zero-point vibrational energy     780350.4 (Joules/Mol)
                                  186.50823 (Kcal/Mol)
 Warning -- explicit consideration of  24 degrees of freedom as
           vibrations may cause significant error
 Vibrational temperatures:     85.17   114.81   125.96   184.36   187.28
          (Kelvin)            218.94   278.47   313.41   415.79   425.63
                              431.74   467.15   473.40   497.09   536.17
                              552.91   586.81   684.78   698.35   703.07
                              780.82   781.51   795.34   799.01   927.41
                              952.38   981.77  1112.06  1124.40  1127.61
                             1148.88  1213.27  1272.56  1296.13  1336.78
                             1408.91  1426.18  1438.02  1538.12  1542.99
                             1594.06  1595.15  1628.05  1629.10  1652.39
                             1655.47  1695.26  1701.74  1711.05  1738.39
                             1770.12  1812.75  1816.62  1841.45  1843.26
                             1963.96  1997.43  2021.90  2025.85  2082.26
                             2108.25  2112.73  2126.88  2141.33  2142.50
                             2152.65  2157.38  2159.97  2171.00  2191.62
                             2201.29  2207.85  2232.18  2238.63  2276.49
                             2393.83  2413.38  2440.04  4259.59  4260.48
                             4285.41  4287.68  4448.20  4448.69  4454.77
                             4456.70  4524.36  4524.44  4608.05  4608.92
                             4619.75  4621.84  4646.96  4648.83  4687.24
                             4687.36

 Zero-point correction=                           0.297220 (Hartree/Particle)
 Thermal correction to Energy=                    0.311862
 Thermal correction to Enthalpy=                  0.312806
 Thermal correction to Gibbs Free Energy=         0.256657
 Sum of electronic and zero-point Energies=           -653.343667
 Sum of electronic and thermal Energies=              -653.329025
 Sum of electronic and thermal Enthalpies=            -653.328081
 Sum of electronic and thermal Free Energies=         -653.384230

                     E (Thermal)             CV                S
                      KCal/Mol        Cal/Mol-Kelvin    Cal/Mol-Kelvin
 Total                  195.696             58.272            118.176
 Electronic               0.000              0.000              0.000
 Translational            0.889              2.981             41.988
 Rotational               0.889              2.981             32.064
 Vibrational            193.919             52.310             44.124
 Vibration     1          0.597              1.974              4.484
 Vibration     2          0.600              1.963              3.896
 Vibration     3          0.601              1.958              3.714
 Vibration     4          0.611              1.925              2.974
 Vibration     5          0.612              1.923              2.944
 Vibration     6          0.619              1.900              2.645
 Vibration     7          0.635              1.849              2.194
 Vibration     8          0.646              1.814              1.977
 Vibration     9          0.686              1.694              1.480
 Vibration    10          0.690              1.682              1.440
 Vibration    11          0.693              1.674              1.416
 Vibration    12          0.709              1.626              1.286
 Vibration    13          0.712              1.618              1.265
 Vibration    14          0.724              1.584              1.187
 Vibration    15          0.744              1.528              1.069
 Vibration    16          0.753              1.504              1.022
 Vibration    17          0.772              1.453              0.934
 Vibration    18          0.833              1.303              0.721
 Vibration    19          0.841              1.282              0.696
 Vibration    20          0.845              1.275              0.687
 Vibration    21          0.898              1.156              0.560
 Vibration    22          0.898              1.155              0.558
 Vibration    23          0.908              1.134              0.538
 Vibration    24          0.911              1.128              0.533

 Optimization completed.
    -- Stationary point found.
 Normal termination of Gaussian 09 at Tue Jun 11 13:25:10 2024.
