 Gaussian 09, Revision E.01,
 Gaussian 09:  ES64L-G09RevE.01 30-Nov-2015

 -----------------------------
 # opt freq wb97xd/6-31+g(d,p)
 -----------------------------

 ----------
 [No Title]
 ----------
 Symbolic Z-matrix:
 Charge =  1 Multiplicity = 1

 SCF Done:  E(RwB97XD) =  -654.050460569     A.U. after   15 cycles
 SCF Done:  E(RwB97XD) =  -654.050728392     A.U. after   13 cycles
 SCF Done:  E(RwB97XD) =  -654.050434495     A.U. after   13 cycles
 SCF Done:  E(RwB97XD) =  -654.050817955     A.U. after    8 cycles
 SCF Done:  E(RwB97XD) =  -654.050850916     A.U. after   11 cycles
 SCF Done:  E(RwB97XD) =  -654.050825816     A.U. after   10 cycles
 SCF Done:  E(RwB97XD) =  -654.050852392     A.U. after   10 cycles
 SCF Done:  E(RwB97XD) =  -654.050854494     A.U. after    9 cycles
 Optimization completed.
    -- Stationary point found.
 Normal termination of Gaussian 09 at Tue Jun 11 18:53:26 2024.

 ----------------------------------------------------------------------
 #N Geom=AllCheck Guess=TCheck SCRF=Check GenChk RwB97XD/6-31+G(d,p) Fr
 eq
 ----------------------------------------------------------------------

 Structure from the checkpoint file:  "WB97XDDMANyang.chk"
 ----------
 [No Title]
 ----------
 Charge =  1 Multiplicity = 1

                         Standard orientation:
 ---------------------------------------------------------------------
 Center     Atomic      Atomic             Coordinates (Angstroms)
 Number     Number       Type             X           Y           Z
 ---------------------------------------------------------------------
      1          6           0       -0.745585   -2.434199   -0.000033
      2          6           0       -2.155884   -2.397913   -0.000015
      3          6           0       -2.803110   -1.190988    0.000007
      4          6           0       -2.081720    0.031637    0.000014
      5          6           0       -0.653579    0.014850   -0.000003
      6          6           0       -0.027694   -1.268191   -0.000027
      7          6           0       -2.769165    1.273002    0.000042
      8          6           0       -2.081208    2.456605    0.000058
      9          6           0       -0.669986    2.448868    0.000049
     10          6           0        0.033335    1.270545    0.000019
     11          7           0        1.443661   -1.317119   -0.000054
     12          7           0        1.489155    1.272151    0.000014
     13          6           0        2.008982   -1.919101    1.235565
     14          6           0        2.008923   -1.918976   -1.235759
     15          6           0        2.058521    1.869572   -1.220539
     16          6           0        2.058528    1.869348    1.220673
     17          1           0       -0.237982   -3.394041   -0.000056
     18          1           0       -2.714422   -3.326794   -0.000018
     19          1           0       -3.887874   -1.152338    0.000021
     20          1           0       -3.854536    1.267120    0.000053
     21          1           0       -2.610779    3.402642    0.000083
     22          1           0       -0.135767    3.394142    0.000067
     23          1           0        1.694349   -0.233516   -0.000006
     24          1           0        3.091059   -1.777336    1.230978
     25          1           0        1.570727   -1.420494    2.100123
     26          1           0        1.779853   -2.985205    1.275937
     27          1           0        3.091000   -1.777205   -1.231216
     28          1           0        1.570621   -1.420289   -2.100249
     29          1           0        1.779796   -2.985077   -1.276225
     30          1           0        1.616065    1.394520   -2.098554
     31          1           0        1.871083    2.948462   -1.276996
     32          1           0        3.138891    1.703849   -1.228458
     33          1           0        1.616090    1.394126    2.098606
     34          1           0        3.138900    1.703634    1.228548
     35          1           0        1.871077    2.948224    1.277336
 ---------------------------------------------------------------------

 SCF Done:  E(RwB97XD) =  -654.050854494     A.U. after    1 cycles

 The electronic state is 1-A.
 Alpha  occ. eigenvalues --  -14.69055 -14.62491 -10.49267 -10.48676 -10.48676
 Alpha  occ. eigenvalues --  -10.47819 -10.46306 -10.45826 -10.45826 -10.45191
 Alpha  occ. eigenvalues --  -10.45059 -10.43998 -10.43802 -10.43730 -10.43298
 Alpha  occ. eigenvalues --  -10.43222  -1.24879  -1.18945  -1.11231  -1.05967
 Alpha  occ. eigenvalues --   -1.01399  -0.98481  -0.98369  -0.96330  -0.95029
 Alpha  occ. eigenvalues --   -0.92249  -0.88855  -0.86220  -0.84140  -0.81321
 Alpha  occ. eigenvalues --   -0.77476  -0.75624  -0.74828  -0.72533  -0.72291
 Alpha  occ. eigenvalues --   -0.71145  -0.68743  -0.68474  -0.67959  -0.65903
 Alpha  occ. eigenvalues --   -0.65170  -0.64958  -0.63650  -0.63238  -0.62548
 Alpha  occ. eigenvalues --   -0.62175  -0.61165  -0.61058  -0.60452  -0.59325
 Alpha  occ. eigenvalues --   -0.58956  -0.56201  -0.55596  -0.54820  -0.50126
 Alpha  occ. eigenvalues --   -0.46842  -0.45528  -0.42358
 Alpha virt. eigenvalues --   -0.11857  -0.08686  -0.05617  -0.04628  -0.03557
 Alpha virt. eigenvalues --   -0.03117  -0.02936  -0.02134  -0.01658  -0.00995
 Alpha virt. eigenvalues --   -0.00845  -0.00747   0.00416   0.00760   0.01190

 Mulliken charges:
               1
     1  C   -0.114949
     2  C   -0.238603
     3  C   -0.157618
     4  C   -0.255617
     5  C    0.087810
     6  C   -0.040289
     7  C   -0.189483
     8  C   -0.222826
     9  C   -0.132263
    10  C   -0.032121
    11  N   -0.429890
    12  N   -0.497319
    13  C   -0.173778
    14  C   -0.173794
    15  C   -0.164505
    16  C   -0.164508
    17  H    0.171447
    18  H    0.193476
    19  H    0.188095
    20  H    0.185987
    21  H    0.191667
    22  H    0.171852
    23  H    0.495524
    24  H    0.200828
    25  H    0.205295
    26  H    0.203386
    27  H    0.200828
    28  H    0.205295
    29  H    0.203388
    30  H    0.178379
    31  H    0.182601
    32  H    0.180360
    33  H    0.178374
    34  H    0.180362
    35  H    0.182606
 Sum of Mulliken charges =   1.00000

 Dipole moment (field-independent basis, Debye):
    X=              4.0033    Y=             -1.6648    Z=             -0.0001  Tot=              4.3356
 Quadrupole moment (field-independent basis, Debye-Ang):
   XX=            -62.3756   YY=            -64.0042   ZZ=            -91.4201
   XY=             -3.1755   XZ=             -0.0003   YZ=              0.0006

  Exact polarizability: 190.636   0.717 206.363  -0.001   0.001 108.685
 Approx polarizability: 207.549   0.508 238.237  -0.001   0.002 127.699

                      1                      2                      3
                      A                      A                      A
 Frequencies --     24.0390                73.5208               128.7251
 Red. masses --      3.4958                 2.6808                 3.3085
 Frc consts  --      0.0012                 0.0085                 0.0323
 IR Inten    --      0.0788                 0.1439                 0.5492

                      4                      5                      6
                      A                      A                      A
 Frequencies --    139.7332               164.5205               181.5662
 Red. masses --      2.4841                 2.9733                 3.3565
 Frc consts  --      0.0286                 0.0474                 0.0652
 IR Inten    --      0.2864                22.4850                 4.2277

                      7                      8                      9
                      A                      A                      A
 Frequencies --    191.8492               238.8092               244.7092
 Red. masses --      3.4986                 1.1009                 2.0040
 Frc consts  --      0.0759                 0.0370                 0.0707
 IR Inten    --      0.2208                 0.0295                 1.1829

                     10                     11                     12
                      A                      A                      A
 Frequencies --    265.1759               265.6734               277.6032
 Red. masses --      2.0275                 1.0787                 1.4433
 Frc consts  --      0.0840                 0.0449                 0.0655
 IR Inten    --      2.0748                 0.0630                 0.5252

                     13                     14                     15
                      A                      A                      A
 Frequencies --    282.9770               325.2082               325.3022
 Red. masses --      1.2458                 3.2792                 2.6616
 Frc consts  --      0.0588                 0.2043                 0.1659
 IR Inten    --      0.2576                 0.1870                 2.7552

                     16                     17                     18
                      A                      A                      A
 Frequencies --    386.7469               433.3980               454.2006
 Red. masses --      3.6378                 3.1096                 2.9280
 Frc consts  --      0.3206                 0.3441                 0.3559
 IR Inten    --     13.6829                31.2349                 0.3341

                     19                     20                     21
                      A                      A                      A
 Frequencies --    481.9605               503.4380               536.2382
 Red. masses --      3.3115                 5.3137                 4.2602
 Frc consts  --      0.4532                 0.7935                 0.7218
 IR Inten    --      0.5389                23.1491                15.5267

                     22                     23                     24
                      A                      A                      A
 Frequencies --    541.9814               544.5169               578.1547
 Red. masses --      4.9544                 3.5377                 3.8235
 Frc consts  --      0.8575                 0.6180                 0.7530
 IR Inten    --      4.3193                 0.0130                 4.1706

                     25                     26                     27
                      A                      A                      A
 Frequencies --    650.7322               676.5437               683.3324
 Red. masses --      3.9231                 2.9298                 3.6037
 Frc consts  --      0.9788                 0.7901                 0.9914
 IR Inten    --      0.0158                 0.2486                70.3612

                     28                     29                     30
                      A                      A                      A
 Frequencies --    783.5525               789.0411               792.4243
 Red. masses --      4.7579                 1.9656                 1.3579
 Frc consts  --      1.7211                 0.7210                 0.5024
 IR Inten    --      0.9627                64.3454                 5.9234

                     31                     32                     33
                      A                      A                      A
 Frequencies --    799.4438               857.5658               903.2410
 Red. masses --      5.3523                 2.3986                 4.0132
 Frc consts  --      2.0154                 1.0393                 1.9291
 IR Inten    --      0.6457                30.8866                45.8480

                     34                     35                     36
                      A                      A                      A
 Frequencies --    940.0292               940.5314               959.0688
 Red. masses --      1.3924                 3.6465                 1.4470
 Frc consts  --      0.7249                 1.9005                 0.7842
 IR Inten    --      0.3851                31.9296                 1.0691

                     37                     38                     39
                      A                      A                      A
 Frequencies --   1014.5540              1024.2349              1034.3451
 Red. masses --      1.3464                 1.3572                 3.1998
 Frc consts  --      0.8166                 0.8389                 2.0170
 IR Inten    --      0.0045                 0.1426                30.9012

                     40                     41                     42
                      A                      A                      A
 Frequencies --   1046.0284              1058.4671              1063.2290
 Red. masses --      1.7881                 3.6098                 1.5973
 Frc consts  --      1.1527                 2.3828                 1.0638
 IR Inten    --     12.3816                17.5582                14.2874

                     43                     44                     45
                      A                      A                      A
 Frequencies --   1100.0647              1118.3553              1124.5593
 Red. masses --      1.2167                 2.0714                 1.8237
 Frc consts  --      0.8675                 1.5264                 1.3588
 IR Inten    --      0.6851                 9.8211                 2.8115

                     46                     47                     48
                      A                      A                      A
 Frequencies --   1125.3751              1191.0192              1201.9459
 Red. masses --      1.2440                 1.2898                 1.4341
 Frc consts  --      0.9283                 1.0780                 1.2207
 IR Inten    --      1.6989                 0.7397                 4.3973

                     49                     50                     51
                      A                      A                      A
 Frequencies --   1207.3723              1210.2946              1223.7110
 Red. masses --      2.5033                 1.5966                 1.3410
 Frc consts  --      2.1500                 1.3780                 1.1831
 IR Inten    --      6.9690                14.3432                27.7021

                     52                     53                     54
                      A                      A                      A
 Frequencies --   1232.0436              1240.5133              1250.8278
 Red. masses --      3.3914                 1.5135                 1.7312
 Frc consts  --      3.0330                 1.3723                 1.5958
 IR Inten    --     13.4718                38.9134                 2.6710

                     55                     56                     57
                      A                      A                      A
 Frequencies --   1253.9089              1302.4404              1329.0543
 Red. masses --      1.7579                 2.2498                 2.4692
 Frc consts  --      1.6285                 2.2486                 2.5697
 IR Inten    --     36.0335                 1.2765                19.7292

                     58                     59                     60
                      A                      A                      A
 Frequencies --   1395.9212              1399.7083              1427.7886
 Red. masses --      3.6885                 2.1928                 5.4201
 Frc consts  --      4.2347                 2.5311                 6.5101
 IR Inten    --      1.8125               118.8768                 7.3047

                     61                     62                     63
                      A                      A                      A
 Frequencies --   1454.2691              1458.2925              1458.6410
 Red. masses --      1.1449                 1.4205                 1.1429
 Frc consts  --      1.4266                 1.7798                 1.4327
 IR Inten    --      1.1422                71.9378                11.2131

                     64                     65                     66
                      A                      A                      A
 Frequencies --   1484.5742              1489.2185              1490.9734
 Red. masses --      1.5711                 1.0448                 1.2765
 Frc consts  --      2.0401                 1.3653                 1.6719
 IR Inten    --      0.5189                 0.0254                 3.8485

                     67                     68                     69
                      A                      A                      A
 Frequencies --   1499.3899              1504.3765              1507.1380
 Red. masses --      1.0512                 1.1473                 1.0435
 Frc consts  --      1.3924                 1.5298                 1.3966
 IR Inten    --      0.2182                 2.9464                 6.5501

                     70                     71                     72
                      A                      A                      A
 Frequencies --   1519.6855              1519.7838              1522.2267
 Red. masses --      1.0465                 1.0630                 1.5956
 Frc consts  --      1.4240                 1.4466                 2.1783
 IR Inten    --     13.1109                 9.6486                 8.5877

                     73                     74                     75
                      A                      A                      A
 Frequencies --   1526.9118              1538.3609              1561.3816
 Red. masses --      1.3135                 1.0742                 2.5445
 Frc consts  --      1.8043                 1.4978                 3.6549
 IR Inten    --      5.3280                26.5208               206.2781

                     76                     77                     78
                      A                      A                      A
 Frequencies --   1613.5886              1662.3493              1691.5692
 Red. masses --      1.7556                 6.7771                 1.0873
 Frc consts  --      2.6931                11.0341                 1.8330
 IR Inten    --    284.7575                 1.3989                 4.9788

                     79                     80                     81
                      A                      A                      A
 Frequencies --   1696.1476              1718.9163              2090.2661
 Red. masses --      4.5115                 6.3014                 1.1242
 Frc consts  --      7.6472                10.9697                 2.8939
 IR Inten    --     49.0522                50.0940              1159.8933

                     82                     83                     84
                      A                      A                      A
 Frequencies --   3057.4746              3059.9333              3094.3670
 Red. masses --      1.0364                 1.0377                 1.0319
 Frc consts  --      5.7082                 5.7244                 5.8213
 IR Inten    --     20.7867                21.7180                 5.6435

                     85                     86                     87
                      A                      A                      A
 Frequencies --   3096.8134              3142.4246              3143.2744
 Red. masses --      1.0327                 1.0999                 1.1013
 Frc consts  --      5.8353                 6.3991                 6.4107
 IR Inten    --      6.2011                22.0108                 1.8267

                     88                     89                     90
                      A                      A                      A
 Frequencies --   3174.7138              3176.5587              3193.9483
 Red. masses --      1.1057                 1.1060                 1.1080
 Frc consts  --      6.5661                 6.5754                 6.6598
 IR Inten    --      4.1213                19.5273                 0.0089

                     91                     92                     93
                      A                      A                      A
 Frequencies --   3194.7083              3205.5971              3206.9302
 Red. masses --      1.1071                 1.1071                 1.1080
 Frc consts  --      6.6573                 6.7030                 6.7137
 IR Inten    --      5.3930                 0.7770                 4.4627

                     94                     95                     96
                      A                      A                      A
 Frequencies --   3228.8146              3229.2898              3234.5158
 Red. masses --      1.0899                 1.0897                 1.0916
 Frc consts  --      6.6947                 6.6951                 6.7287
 IR Inten    --      3.6725                 2.3568                 0.8040

                     97                     98                     99
                      A                      A                      A
 Frequencies --   3236.5299              3255.7592              3256.0395
 Red. masses --      1.0912                 1.0979                 1.0978
 Frc consts  --      6.7346                 6.8567                 6.8575
 IR Inten    --      2.7393                 1.1092                 2.0106

 - Thermochemistry -
 -------------------
 Temperature   298.150 Kelvin.  Pressure   1.00000 Atm.
 Atom     1 has atomic number  6 and mass  12.00000

 Molecular mass:   215.15482 amu.
 Principal axes and moments of inertia in atomic units:
                           1         2         3
     Eigenvalues --  2808.400412979.078505053.00794
           X            0.99999  -0.00346   0.00001
           Y            0.00346   0.99999  -0.00002
           Z           -0.00001   0.00002   1.00000
 This molecule is an asymmetric top.
 Rotational symmetry number  1.
 Warning -- assumption of classical behavior for rotation
           may cause significant error
 Rotational temperatures (Kelvin)      0.03084     0.02907     0.01714
 Rotational constants (GHZ):           0.64262     0.60581     0.35716
 Zero-point vibrational energy     814280.5 (Joules/Mol)
                                  194.61771 (Kcal/Mol)
 Warning -- explicit consideration of  24 degrees of freedom as
           vibrations may cause significant error
 Vibrational temperatures:     34.59   105.78   185.21   201.04   236.71
          (Kelvin)            261.23   276.03   343.59   352.08   381.53
                              382.24   399.41   407.14   467.90   468.04
                              556.44   623.56   653.49   693.43   724.33
                              771.53   779.79   783.44   831.83   936.26
                              973.39   983.16  1127.36  1135.25  1140.12
                             1150.22  1233.84  1299.56  1352.49  1353.21
                             1379.88  1459.72  1473.64  1488.19  1505.00
                             1522.90  1529.75  1582.75  1609.06  1617.99
                             1619.16  1713.61  1729.33  1737.14  1741.34
                             1760.65  1772.63  1784.82  1799.66  1804.09
                             1873.92  1912.21  2008.42  2013.87  2054.27
                             2092.37  2098.16  2098.66  2135.97  2142.65
                             2145.18  2157.28  2164.46  2168.43  2186.49
                             2186.63  2190.14  2196.88  2213.36  2246.48
                             2321.59  2391.75  2433.79  2440.37  2473.13
                             3007.42  4399.02  4402.56  4452.10  4455.62
                             4521.24  4522.47  4567.70  4570.35  4595.37
                             4596.47  4612.13  4614.05  4645.54  4646.22
                             4653.74  4656.64  4684.31  4684.71

 Zero-point correction=                           0.310143 (Hartree/Particle)
 Thermal correction to Energy=                    0.324955
 Thermal correction to Enthalpy=                  0.325899
 Thermal correction to Gibbs Free Energy=         0.268991
 Sum of electronic and zero-point Energies=           -653.740711
 Sum of electronic and thermal Energies=              -653.725899
 Sum of electronic and thermal Enthalpies=            -653.724955
 Sum of electronic and thermal Free Energies=         -653.781863

                     E (Thermal)             CV                S
                      KCal/Mol        Cal/Mol-Kelvin    Cal/Mol-Kelvin
 Total                  203.912             58.799            119.774
 Electronic               0.000              0.000              0.000
 Translational            0.889              2.981             42.002
 Rotational               0.889              2.981             32.114
 Vibrational            202.135             52.837             45.658
 Vibration     1          0.593              1.985              6.269
 Vibration     2          0.599              1.966              4.057
 Vibration     3          0.611              1.925              2.965
 Vibration     4          0.615              1.914              2.808
 Vibration     5          0.623              1.886              2.497
 Vibration     6          0.630              1.865              2.312
 Vibration     7          0.634              1.851              2.210
 Vibration     8          0.657              1.781              1.812
 Vibration     9          0.660              1.772              1.768
 Vibration    10          0.671              1.737              1.627
 Vibration    11          0.671              1.736              1.624
 Vibration    12          0.679              1.715              1.548
 Vibration    13          0.682              1.705              1.516
 Vibration    14          0.709              1.625              1.284
 Vibration    15          0.709              1.625              1.283
 Vibration    16          0.755              1.498              1.013
 Vibration    17          0.794              1.397              0.848
 Vibration    18          0.813              1.352              0.783
 Vibration    19          0.838              1.290              0.705
 Vibration    20          0.859              1.242              0.650
 Vibration    21          0.891              1.170              0.573
 Vibration    22          0.897              1.157              0.561
 Vibration    23          0.900              1.152              0.556
 Vibration    24          0.935              1.079              0.489

 Normal termination of Gaussian 09 at Tue Jun 11 19:16:27 2024.
