 Gaussian 09, Revision E.01,
 Gaussian 09:  ES64L-G09RevE.01 30-Nov-2015

 -----------------------------------------------------
 # opt freq B2PLYP/6-31+g(d,p) empiricaldispersion=gd3
 -----------------------------------------------------

 ----------
 [No Title]
 ----------
 Symbolic Z-matrix:
 Charge =  0 Multiplicity = 1

 SCF Done:  E(RB2PLYP) =  -570.218661922     A.U. after   16 cycles
 E2(B2PLYP) =    -0.5495517773D+00 E(B2PLYP) =    -0.57076821369956D+03
 SCF Done:  E(RB2PLYP) =  -570.218556298     A.U. after   11 cycles
 E2(B2PLYP) =    -0.5497012600D+00 E(B2PLYP) =    -0.57076825755841D+03
 SCF Done:  E(RB2PLYP) =  -570.218539475     A.U. after   10 cycles
 E2(B2PLYP) =    -0.5497258358D+00 E(B2PLYP) =    -0.57076826531110D+03
 SCF Done:  E(RB2PLYP) =  -570.218527198     A.U. after   10 cycles
 E2(B2PLYP) =    -0.5497380832D+00 E(B2PLYP) =    -0.57076826528143D+03
 SCF Done:  E(RB2PLYP) =  -570.218516986     A.U. after   10 cycles
 E2(B2PLYP) =    -0.5497484119D+00 E(B2PLYP) =    -0.57076826539756D+03
 Optimization completed.
    -- Stationary point found.
 Normal termination of Gaussian 09 at Tue Dec 17 21:17:37 2024.

 ----------------------------------------------------------------------
 #N Geom=AllCheck Guess=TCheck SCRF=Check GenChk RB2PLYP(FC)/6-31+G(d,p
 ) Freq
 ----------------------------------------------------------------------

 Structure from the checkpoint file:  "B2PLYPD3DHB.chk"
 ----------
 [No Title]
 ----------
 Charge =  0 Multiplicity = 1

                         Standard orientation:
 ---------------------------------------------------------------------
 Center     Atomic      Atomic             Coordinates (Angstroms)
 Number     Number       Type             X           Y           Z
 ---------------------------------------------------------------------
      1          6           0        0.235387    1.272692    0.000068
      2          6           0        0.466496   -0.121370    0.000211
      3          6           0       -0.631815   -0.997305    0.000167
      4          6           0       -1.937135   -0.515804    0.000012
      5          6           0       -2.164291    0.862810   -0.000116
      6          6           0       -1.083123    1.742507   -0.000081
      7          8           0       -2.950903   -1.445088   -0.000023
      8          6           0        1.845253   -0.675498    0.000388
      9          8           0        1.848750   -2.043357   -0.000053
     10          8           0        2.883221   -0.040224   -0.000432
     11          8           0        1.292449    2.135006    0.000108
     12          1           0       -0.467360   -2.065392    0.000265
     13          1           0       -3.176372    1.255155   -0.000244
     14          1           0       -1.265462    2.812561   -0.000179
     15          1           0       -3.806908   -0.999896   -0.000044
     16          1           0        2.783869   -2.302943   -0.000520
     17          1           0        0.959471    3.041625    0.000022
 ---------------------------------------------------------------------

 SCF Done:  E(RB2PLYP) =  -570.218516986     A.U. after    1 cycles
 E2(B2PLYP) =    -0.5497484131D+00 E(B2PLYP) =    -0.57076826539879D+03
 E2(B2PLYP) =    -0.5497484131D+00 E(B2PLYP) =    -0.57076826539879D+03

 The electronic state is 1-A.
 Alpha  occ. eigenvalues --  -19.79671 -19.78992 -19.78872 -19.73794 -10.77826
 Alpha  occ. eigenvalues --  -10.71819 -10.70712 -10.66204 -10.66198 -10.65565
 Alpha  occ. eigenvalues --  -10.65067  -1.25537  -1.21932  -1.21566  -1.15744
 Alpha  occ. eigenvalues --   -0.99739  -0.90335  -0.86719  -0.77738  -0.74001
 Alpha  occ. eigenvalues --   -0.69979  -0.64610  -0.63358  -0.59093  -0.57473
 Alpha  occ. eigenvalues --   -0.56587  -0.53239  -0.53054  -0.50814  -0.49873
 Alpha  occ. eigenvalues --   -0.49796  -0.48022  -0.47520  -0.45169  -0.43651
 Alpha  occ. eigenvalues --   -0.39271  -0.38736  -0.34878  -0.31761  -0.26437
 Alpha virt. eigenvalues --   -0.01064   0.01744   0.02540   0.03940   0.04380
 Alpha virt. eigenvalues --    0.04991   0.07233   0.07793   0.07848   0.09061
 Alpha virt. eigenvalues --    0.09907   0.10486   0.10636   0.12289   0.12327

 Mulliken charges:
               1
     1  C   -0.892046
     2  C    0.558441
     3  C   -0.050628
     4  C   -0.338695
     5  C    0.181729
     6  C    0.149456
     7  O   -0.564681
     8  C    0.895458
     9  O   -0.532078
    10  O   -0.495153
    11  O   -0.507312
    12  H    0.192432
    13  H    0.139041
    14  H    0.134225
    15  H    0.362871
    16  H    0.396984
    17  H    0.369956
 Sum of Mulliken charges =  -0.00000

 Dipole moment (field-independent basis, Debye):
    X=             -3.9318    Y=              1.8287    Z=              0.0005  Tot=              4.3363
 Quadrupole moment (field-independent basis, Debye-Ang):
   XX=            -59.1236   YY=            -53.6267   ZZ=            -65.8533
   XY=            -10.9117   XZ=              0.0020   YZ=              0.0005

  Exact polarizability: 128.451  -0.333 110.840  -0.001  -0.003  52.066
 Approx polarizability: 144.417   4.415 133.308  -0.003  -0.007  64.587

 ******    1 imaginary frequencies (negative Signs) ******

                      1                      2                      3
                      A                      A                      A
 Frequencies --    -31.6426               115.8607               161.3105
 Red. masses --     11.6668                 5.4847                 5.8281
 Frc consts  --      0.0069                 0.0434                 0.0894
 IR Inten    --      1.6501                 3.5484                 2.0978

                      4                      5                      6
                      A                      A                      A
 Frequencies --    202.9638               221.5377               317.2606
 Red. masses --      7.6859                 1.0912                 1.1308
 Frc consts  --      0.1865                 0.0316                 0.0671
 IR Inten    --      3.1651               112.4906               101.7085

                      7                      8                      9
                      A                      A                      A
 Frequencies --    325.8407               351.0298               396.5600
 Red. masses --      6.8941                 5.9553                 8.2961
 Frc consts  --      0.4313                 0.4324                 0.7687
 IR Inten    --      0.6741                 1.8996                 3.1876

                     10                     11                     12
                      A                      A                      A
 Frequencies --    403.9288               411.6076               482.5338
 Red. masses --      6.9272                 3.2069                 8.0548
 Frc consts  --      0.6659                 0.3201                 1.1050
 IR Inten    --      1.5399                 5.1144                 1.0591

                     13                     14                     15
                      A                      A                      A
 Frequencies --    524.6530               547.2189               548.9600
 Red. masses --      3.3972                 4.0539                 2.9952
 Frc consts  --      0.5510                 0.7152                 0.5318
 IR Inten    --      6.1895                36.1865                11.4439

                     16                     17                     18
                      A                      A                      A
 Frequencies --    587.7548               662.1455               732.0293
 Red. masses --      1.5789                 5.0029                 5.6594
 Frc consts  --      0.3214                 1.2923                 1.7868
 IR Inten    --    108.8611                43.9686                20.4591

                     19                     20                     21
                      A                      A                      A
 Frequencies --    765.2890               789.8836               800.9864
 Red. masses --      7.7670                 1.4629                 6.0506
 Frc consts  --      2.6801                 0.5378                 2.2872
 IR Inten    --     18.5426                52.4395                55.0383

                     22                     23                     24
                      A                      A                      A
 Frequencies --    856.7787               903.2424               955.8858
 Red. masses --      1.2056                 1.3165                 5.7271
 Frc consts  --      0.5214                 0.6328                 3.0832
 IR Inten    --     11.1136                 4.3654                12.9630

                     25                     26                     27
                      A                      A                      A
 Frequencies --   1066.8871              1157.8437              1187.4192
 Red. masses --      3.8426                 1.8586                 1.4705
 Frc consts  --      2.5770                 1.4681                 1.2216
 IR Inten    --    134.4772                73.2489               280.0198

                     28                     29                     30
                      A                      A                      A
 Frequencies --   1200.7861              1208.9139              1283.4903
 Red. masses --      1.2837                 1.1895                 2.0729
 Frc consts  --      1.0905                 1.0243                 2.0119
 IR Inten    --     16.5112               184.5157                49.0745

                     31                     32                     33
                      A                      A                      A
 Frequencies --   1306.7628              1340.2964              1364.2755
 Red. masses --      7.3680                 1.4760                 2.7686
 Frc consts  --      7.4130                 1.5622                 3.0361
 IR Inten    --      5.8638               202.7387               133.2399

                     34                     35                     36
                      A                      A                      A
 Frequencies --   1403.6128              1491.7686              1550.4405
 Red. masses --      4.9941                 3.2222                 2.9420
 Frc consts  --      5.7970                 4.2248                 4.1668
 IR Inten    --      5.0382                21.8894               170.2428

                     37                     38                     39
                      A                      A                      A
 Frequencies --   1650.2097              1682.1012              1790.3625
 Red. masses --      6.4483                 6.3078                 9.7178
 Frc consts  --     10.3460                10.5156                18.3527
 IR Inten    --     62.8641                 6.4869               359.3065

                     40                     41                     42
                      A                      A                      A
 Frequencies --   3198.4036              3214.7825              3273.1767
 Red. masses --      1.0878                 1.0956                 1.0915
 Frc consts  --      6.5567                 6.6709                 6.8902
 IR Inten    --     14.7260                 9.5277                 2.9935

                     43                     44                     45
                      A                      A                      A
 Frequencies --   3788.8479              3836.7250              3855.6734
 Red. masses --      1.0647                 1.0663                 1.0665
 Frc consts  --      9.0053                 9.2477                 9.3416
 IR Inten    --     99.3093                61.8836                67.3430

 - Thermochemistry -
 -------------------
 Temperature   298.150 Kelvin.  Pressure   1.00000 Atm.
 Atom     1 has atomic number  6 and mass  12.00000

 Molecular mass:   154.02661 amu.
 Principal axes and moments of inertia in atomic units:
                           1         2         3
     Eigenvalues --  1028.737541975.563533004.30103
           X            0.99972  -0.02361   0.00001
           Y            0.02361   0.99972   0.00000
           Z           -0.00001  -0.00000   1.00000
 This molecule is an asymmetric top.
 Rotational symmetry number  1.
 Warning -- assumption of classical behavior for rotation
           may cause significant error
 Rotational temperatures (Kelvin)      0.08419     0.04384     0.02883
 Rotational constants (GHZ):           1.75433     0.91353     0.60072
    1 imaginary frequencies ignored.
 Zero-point vibrational energy     322501.5 (Joules/Mol)
                                   77.07971 (Kcal/Mol)
 Warning -- explicit consideration of  15 degrees of freedom as
           vibrations may cause significant error
 Vibrational temperatures:    166.70   232.09   292.02   318.74   456.47
          (Kelvin)            468.81   505.05   570.56   581.16   592.21
                              694.26   754.86   787.32   789.83   845.65
                              952.68  1053.23  1101.08  1136.46  1152.44
                             1232.71  1299.56  1375.30  1535.01  1665.88
                             1708.43  1727.66  1739.36  1846.65  1880.14
                             1928.39  1962.89  2019.48  2146.32  2230.74
                             2374.28  2420.17  2575.93  4601.78  4625.35
                             4709.37  5451.30  5520.18  5547.45

 Zero-point correction=                           0.122834 (Hartree/Particle)
 Thermal correction to Energy=                    0.131937
 Thermal correction to Enthalpy=                  0.132881
 Thermal correction to Gibbs Free Energy=         0.088916
 Sum of electronic and zero-point Energies=           -570.645431
 Sum of electronic and thermal Energies=              -570.636328
 Sum of electronic and thermal Enthalpies=            -570.635384
 Sum of electronic and thermal Free Energies=         -570.679349

                     E (Thermal)             CV                S
                      KCal/Mol        Cal/Mol-Kelvin    Cal/Mol-Kelvin
 Total                   82.792             35.732             92.532
 Electronic               0.000              0.000              0.000
 Translational            0.889              2.981             41.006
 Rotational               0.889              2.981             30.191
 Vibrational             81.014             29.770             21.335
 Vibration     1          0.608              1.936              3.168
 Vibration     2          0.622              1.890              2.534
 Vibration     3          0.639              1.836              2.106
 Vibration     4          0.648              1.808              1.946
 Vibration     5          0.704              1.641              1.324
 Vibration     6          0.710              1.624              1.281
 Vibration     7          0.728              1.573              1.162
 Vibration     8          0.763              1.478              0.975
 Vibration     9          0.769              1.462              0.948
 Vibration    10          0.776              1.445              0.921
 Vibration    11          0.839              1.289              0.703
 Vibration    12          0.880              1.195              0.599
 Vibration    13          0.902              1.146              0.550
 Vibration    14          0.904              1.142              0.546
 Vibration    15          0.945              1.058              0.471

 Optimization completed.
    -- Stationary point found.
 Normal termination of Gaussian 09 at Tue Dec 17 21:29:29 2024.
