 Gaussian 09, Revision E.01,
 Gaussian 09:  ES64L-G09RevE.01 30-Nov-2015

 -----------------------------------------------------
 # opt freq B2PLYP/6-31+g(d,p) EmpiricalDispersion=GD3
 -----------------------------------------------------

 ----------
 [No Title]
 ----------
 Symbolic Z-matrix:
 Charge =  1 Multiplicity = 1

 SCF Done:  E(RB2PLYP) =  -570.553272156     A.U. after   16 cycles
 E2(B2PLYP) =    -0.5442986371D+00 E(B2PLYP) =    -0.57109757079299D+03
 SCF Done:  E(RB2PLYP) =  -570.552699302     A.U. after   12 cycles
 E2(B2PLYP) =    -0.5450467461D+00 E(B2PLYP) =    -0.57109774604801D+03
 SCF Done:  E(RB2PLYP) =  -570.552602424     A.U. after   11 cycles
 E2(B2PLYP) =    -0.5451588509D+00 E(B2PLYP) =    -0.57109776127482D+03
 SCF Done:  E(RB2PLYP) =  -570.552620867     A.U. after   10 cycles
 E2(B2PLYP) =    -0.5451461111D+00 E(B2PLYP) =    -0.57109776697817D+03
 Optimization completed.
    -- Stationary point found.
 Normal termination of Gaussian 09 at Tue Dec 17 22:06:52 2024.

 ----------------------------------------------------------------------
 #N Geom=AllCheck Guess=TCheck SCRF=Check GenChk RB2PLYP(FC)/6-31+G(d,p
 ) Freq
 ----------------------------------------------------------------------

 Structure from the checkpoint file:  "B2PLYPD3DHByang.chk"
 ----------
 [No Title]
 ----------
 Charge =  1 Multiplicity = 1

                         Standard orientation:
 ---------------------------------------------------------------------
 Center     Atomic      Atomic             Coordinates (Angstroms)
 Number     Number       Type             X           Y           Z
 ---------------------------------------------------------------------
      1          6           0        0.220066    1.274467   -0.000008
      2          6           0        0.423179   -0.138506    0.000005
      3          6           0       -0.696879   -1.015867    0.000016
      4          6           0       -1.983618   -0.510604    0.000019
      5          6           0       -2.174964    0.888229    0.000013
      6          6           0       -1.094477    1.758404   -0.000002
      7          8           0       -3.003351   -1.404328    0.000037
      8          6           0        1.721371   -0.719600   -0.000004
      9          8           0        1.804927   -2.031073   -0.000129
     10          8           0        2.788273    0.033992    0.000105
     11          8           0        1.288637    2.092586   -0.000039
     12          1           0       -0.555614   -2.087467    0.000029
     13          1           0       -3.180446    1.295684    0.000020
     14          1           0       -1.266938    2.828619   -0.000011
     15          1           0       -3.865770   -0.968472    0.000029
     16          1           0        2.704882   -2.395684   -0.000039
     17          1           0        3.635685   -0.442022    0.000000
     18          1           0        1.012246    3.020790   -0.000050
 ---------------------------------------------------------------------

 SCF Done:  E(RB2PLYP) =  -570.552620867     A.U. after    1 cycles
 E2(B2PLYP) =    -0.5451461119D+00 E(B2PLYP) =    -0.57109776697895D+03
 E2(B2PLYP) =    -0.5451461119D+00 E(B2PLYP) =    -0.57109776697894D+03

 The electronic state is 1-A.
 Alpha  occ. eigenvalues --  -20.02252 -20.02178 -19.94771 -19.91470 -11.01485
 Alpha  occ. eigenvalues --  -10.88626 -10.85005 -10.82758 -10.81393 -10.80337
 Alpha  occ. eigenvalues --  -10.79889  -1.50411  -1.42019  -1.38203  -1.34761
 Alpha  occ. eigenvalues --   -1.15562  -1.08236  -1.02039  -0.98129  -0.92607
 Alpha  occ. eigenvalues --   -0.89134  -0.87156  -0.81653  -0.79209  -0.76380
 Alpha  occ. eigenvalues --   -0.75698  -0.74398  -0.70710  -0.67586  -0.65961
 Alpha  occ. eigenvalues --   -0.65670  -0.65474  -0.64064  -0.64059  -0.62139
 Alpha  occ. eigenvalues --   -0.59220  -0.57175  -0.53723  -0.47620  -0.40886
 Alpha virt. eigenvalues --   -0.20693  -0.14360  -0.10055  -0.09012  -0.08092
 Alpha virt. eigenvalues --   -0.07046  -0.06454  -0.06423  -0.05327  -0.04726
 Alpha virt. eigenvalues --   -0.03029  -0.02015  -0.01407  -0.00560   0.00091

 Mulliken charges:
               1
     1  C   -0.599913
     2  C    0.233039
     3  C    0.008133
     4  C   -0.389900
     5  C    0.262366
     6  C    0.145904
     7  O   -0.537569
     8  C    1.047274
     9  O   -0.433026
    10  O   -0.428750
    11  O   -0.526625
    12  H    0.209041
    13  H    0.183364
    14  H    0.176260
    15  H    0.384395
    16  H    0.414600
    17  H    0.430797
    18  H    0.420610
 Sum of Mulliken charges =   1.00000

 Dipole moment (field-independent basis, Debye):
    X=              3.9917    Y=              0.3152    Z=             -0.0001  Tot=              4.0041
 Quadrupole moment (field-independent basis, Debye-Ang):
   XX=            -14.4927   YY=            -41.1174   ZZ=            -63.9968
   XY=            -17.9843   XZ=             -0.0004   YZ=             -0.0005

  Exact polarizability: 139.090  -9.360 114.170  -0.000   0.000  47.127
 Approx polarizability: 155.485  -9.139 138.594  -0.000   0.000  59.475

 ******    1 imaginary frequencies (negative Signs) ******

                      1                      2                      3
                      A                      A                      A
 Frequencies --    -63.5700               103.3209               146.6165
 Red. masses --     11.6876                 5.0041                 5.1949
 Frc consts  --      0.0278                 0.0315                 0.0658
 IR Inten    --      0.0015                15.0240                 3.9531

                      4                      5                      6
                      A                      A                      A
 Frequencies --    215.3538               273.4264               274.5247
 Red. masses --      6.2992                 1.1217                 1.1115
 Frc consts  --      0.1721                 0.0494                 0.0494
 IR Inten    --     10.0231                59.9800                91.4214

                      7                      8                      9
                      A                      A                      A
 Frequencies --    342.1135               342.2639               393.1756
 Red. masses --      4.3424                 6.2772                 7.5498
 Frc consts  --      0.2994                 0.4332                 0.6876
 IR Inten    --      0.0486                 0.3267                 0.6037

                     10                     11                     12
                      A                      A                      A
 Frequencies --    403.4318               407.1468               412.1322
 Red. masses --      1.8238                 1.3477                 6.0251
 Frc consts  --      0.1749                 0.1316                 0.6030
 IR Inten    --      0.0374                97.0063                 0.6547

                     13                     14                     15
                      A                      A                      A
 Frequencies --    477.3817               496.5155               521.0712
 Red. masses --      7.9122                 1.3580                 3.2178
 Frc consts  --      1.0624                 0.1972                 0.5148
 IR Inten    --      2.0844               188.9480                93.0422

                     16                     17                     18
                      A                      A                      A
 Frequencies --    563.7693               598.1679               655.6897
 Red. masses --      4.0812                 6.3352                 4.3436
 Frc consts  --      0.7643                 1.3355                 1.1003
 IR Inten    --     19.5857                14.5338                46.8511

                     19                     20                     21
                      A                      A                      A
 Frequencies --    733.9362               738.1726               809.7399
 Red. masses --      5.4085                 9.1811                 5.9872
 Frc consts  --      1.7165                 2.9476                 2.3129
 IR Inten    --     14.6586                 0.7743                44.4815

                     22                     23                     24
                      A                      A                      A
 Frequencies --    821.1754               840.0493               941.2461
 Red. masses --      1.4328                 1.3078                 1.2847
 Frc consts  --      0.5692                 0.5437                 0.6706
 IR Inten    --     44.4040                20.6423                 0.5604

                     25                     26                     27
                      A                      A                      A
 Frequencies --    967.1806              1096.3799              1133.7601
 Red. masses --      4.8337                 3.1896                 1.1335
 Frc consts  --      2.6641                 2.2590                 0.8585
 IR Inten    --     25.7011               171.4379               177.5396

                     28                     29                     30
                      A                      A                      A
 Frequencies --   1159.0474              1198.3825              1205.6424
 Red. masses --      1.7550                 1.4505                 1.2312
 Frc consts  --      1.3891                 1.2273                 1.0544
 IR Inten    --    153.4183               288.7267                96.1790

                     31                     32                     33
                      A                      A                      A
 Frequencies --   1215.6903              1303.7848              1327.8368
 Red. masses --      1.2038                 1.9194                 9.8725
 Frc consts  --      1.0483                 1.9223                10.2557
 IR Inten    --    136.2423                26.8468                83.8247

                     34                     35                     36
                      A                      A                      A
 Frequencies --   1349.2537              1436.1701              1460.7113
 Red. masses --      1.6691                 5.1113                 3.1163
 Frc consts  --      1.7903                 6.2115                 3.9176
 IR Inten    --    226.6258                85.0027                11.4325

                     37                     38                     39
                      A                      A                      A
 Frequencies --   1513.0798              1561.5623              1614.3367
 Red. masses --      4.5480                 3.6889                 4.2950
 Frc consts  --      6.1347                 5.2998                 6.5948
 IR Inten    --     73.9288               482.8125               537.8733

                     40                     41                     42
                      A                      A                      A
 Frequencies --   1626.5310              1693.3388              3220.8636
 Red. masses --      5.7424                 6.0204                 1.0898
 Frc consts  --      8.9509                10.1710                 6.6611
 IR Inten    --    248.5028                61.7443                 2.2913

                     43                     44                     45
                      A                      A                      A
 Frequencies --   3234.5492              3273.4137              3765.6041
 Red. masses --      1.0962                 1.0923                 1.0682
 Frc consts  --      6.7573                 6.8961                 8.9243
 IR Inten    --      0.3801                 8.1175               128.3560

                     46                     47                     48
                      A                      A                      A
 Frequencies --   3784.2397              3811.1214              3842.6069
 Red. masses --      1.0669                 1.0668                 1.0671
 Frc consts  --      9.0018                 9.1293                 9.2838
 IR Inten    --    494.2749               167.7128               137.1511

 - Thermochemistry -
 -------------------
 Temperature   298.150 Kelvin.  Pressure   1.00000 Atm.
 Atom     1 has atomic number  6 and mass  12.00000

 Molecular mass:   155.03443 amu.
 Principal axes and moments of inertia in atomic units:
                           1         2         3
     Eigenvalues --  1020.055781995.823263015.87904
           X            0.99960  -0.02842   0.00001
           Y            0.02842   0.99960  -0.00001
           Z           -0.00001   0.00001   1.00000
 This molecule is an asymmetric top.
 Rotational symmetry number  1.
 Warning -- assumption of classical behavior for rotation
           may cause significant error
 Rotational temperatures (Kelvin)      0.08491     0.04340     0.02872
 Rotational constants (GHZ):           1.76926     0.90426     0.59841
    1 imaginary frequencies ignored.
 Zero-point vibrational energy     354725.7 (Joules/Mol)
                                   84.78148 (Kcal/Mol)
 Warning -- explicit consideration of  16 degrees of freedom as
           vibrations may cause significant error
 Vibrational temperatures:    148.66   210.95   309.85   393.40   394.98
          (Kelvin)            492.22   492.44   565.69   580.45   585.79
                              592.97   686.84   714.37   749.70   811.14
                              860.63   943.39  1055.97  1062.06  1165.03
                             1181.49  1208.64  1354.24  1391.56  1577.44
                             1631.23  1667.61  1724.20  1734.65  1749.10
                             1875.85  1910.46  1941.27  2066.33  2101.64
                             2176.98  2246.74  2322.67  2340.21  2436.33
                             4634.10  4653.79  4709.71  5417.86  5444.67
                             5483.35  5528.65

 Zero-point correction=                           0.135108 (Hartree/Particle)
 Thermal correction to Energy=                    0.144552
 Thermal correction to Enthalpy=                  0.145496
 Thermal correction to Gibbs Free Energy=         0.100955
 Sum of electronic and zero-point Energies=           -570.962659
 Sum of electronic and thermal Energies=              -570.953215
 Sum of electronic and thermal Enthalpies=            -570.952271
 Sum of electronic and thermal Free Energies=         -570.996812

                     E (Thermal)             CV                S
                      KCal/Mol        Cal/Mol-Kelvin    Cal/Mol-Kelvin
 Total                   90.708             37.373             93.744
 Electronic               0.000              0.000              0.000
 Translational            0.889              2.981             41.025
 Rotational               0.889              2.981             30.197
 Vibrational             88.930             31.411             22.522
 Vibration     1          0.605              1.947              3.391
 Vibration     2          0.617              1.906              2.716
 Vibration     3          0.645              1.818              1.998
 Vibration     4          0.676              1.722              1.574
 Vibration     5          0.677              1.720              1.568
 Vibration     6          0.721              1.591              1.202
 Vibration     7          0.721              1.591              1.202
 Vibration     8          0.760              1.485              0.988
 Vibration     9          0.769              1.463              0.950
 Vibration    10          0.772              1.455              0.937
 Vibration    11          0.776              1.444              0.919
 Vibration    12          0.834              1.300              0.717
 Vibration    13          0.852              1.258              0.667
 Vibration    14          0.876              1.203              0.607
 Vibration    15          0.920              1.110              0.516
 Vibration    16          0.956              1.036              0.453

 Optimization completed.
    -- Stationary point found.
 Normal termination of Gaussian 09 at Tue Dec 17 22:19:29 2024.
