 Gaussian 09, Revision E.01,
 Gaussian 09:  ES64L-G09RevE.01 30-Nov-2015

 ----------------------------------------------------
 # opt freq b3lyp/6-31+g(d,p) EmpiricalDispersion=GD3
 ----------------------------------------------------

 ----------
 [No Title]
 ----------
 Symbolic Z-matrix:
 Charge =  1 Multiplicity = 1

 SCF Done:  E(RB3LYP) =  -571.640952931     A.U. after   15 cycles
 SCF Done:  E(RB3LYP) =  -571.641134304     A.U. after   11 cycles
 SCF Done:  E(RB3LYP) =  -571.641149039     A.U. after   10 cycles
 SCF Done:  E(RB3LYP) =  -571.641149920     A.U. after    9 cycles
 SCF Done:  E(RB3LYP) =  -571.641150323     A.U. after    9 cycles
 Optimization completed.
    -- Stationary point found.
 Normal termination of Gaussian 09 at Tue Dec 17 13:44:49 2024.

 ----------------------------------------------------------------------
 #N Geom=AllCheck Guess=TCheck SCRF=Check GenChk RB3LYP/6-31+G(d,p) Fre
 q
 ----------------------------------------------------------------------

 Structure from the checkpoint file:  "B3lypD3DHByanggd3.chk"
 ----------
 [No Title]
 ----------
 Charge =  1 Multiplicity = 1

                         Standard orientation:
 ---------------------------------------------------------------------
 Center     Atomic      Atomic             Coordinates (Angstroms)
 Number     Number       Type             X           Y           Z
 ---------------------------------------------------------------------
      1          6           0        0.217152    1.276951   -0.000006
      2          6           0        0.425946   -0.138593   -0.000000
      3          6           0       -0.696277   -1.015752    0.000011
      4          6           0       -1.984248   -0.515535    0.000018
      5          6           0       -2.177013    0.884379    0.000013
      6          6           0       -1.099306    1.756757    0.000001
      7          8           0       -3.002895   -1.408985    0.000033
      8          6           0        1.725149   -0.717682   -0.000014
      9          8           0        1.812785   -2.029068   -0.000089
     10          8           0        2.792671    0.035215    0.000062
     11          8           0        1.279123    2.099057   -0.000023
     12          1           0       -0.553682   -2.088843    0.000018
     13          1           0       -3.185361    1.290339    0.000020
     14          1           0       -1.274566    2.828638   -0.000004
     15          1           0       -3.869146   -0.979044    0.000028
     16          1           0        2.711538   -2.397651   -0.000006
     17          1           0        3.643577   -0.435142   -0.000021
     18          1           0        1.005738    3.028799   -0.000033
 ---------------------------------------------------------------------

 SCF Done:  E(RB3LYP) =  -571.641150323     A.U. after    1 cycles

 The electronic state is 1-A.
 Alpha  occ. eigenvalues --  -19.42477 -19.42469 -19.35923 -19.32756 -10.55924
 Alpha  occ. eigenvalues --  -10.44363 -10.41274 -10.39198 -10.37372 -10.36318
 Alpha  occ. eigenvalues --  -10.36298  -1.35309  -1.27463  -1.24353  -1.21022
 Alpha  occ. eigenvalues --   -1.03317  -0.96895  -0.91144  -0.88148  -0.83956
 Alpha  occ. eigenvalues --   -0.79962  -0.78663  -0.73452  -0.71555  -0.67911
 Alpha  occ. eigenvalues --   -0.67651  -0.66458  -0.63315  -0.60113  -0.58869
 Alpha  occ. eigenvalues --   -0.58738  -0.58074  -0.56739  -0.56508  -0.55194
 Alpha  occ. eigenvalues --   -0.52223  -0.50543  -0.47684  -0.43827  -0.37359
 Alpha virt. eigenvalues --   -0.25874  -0.18403  -0.15977  -0.12979  -0.12791
 Alpha virt. eigenvalues --   -0.12030  -0.11082  -0.09843  -0.08576  -0.07885
 Alpha virt. eigenvalues --   -0.06384  -0.05219  -0.04314  -0.03828  -0.03408

 Mulliken charges:
               1
     1  C   -0.668213
     2  C    0.286302
     3  C   -0.080191
     4  C   -0.266164
     5  C    0.228631
     6  C    0.148800
     7  O   -0.508169
     8  C    1.011972
     9  O   -0.396404
    10  O   -0.389536
    11  O   -0.491470
    12  H    0.185119
    13  H    0.160161
    14  H    0.155343
    15  H    0.380016
    16  H    0.405538
    17  H    0.422054
    18  H    0.416210
 Sum of Mulliken charges =   1.00000

 Dipole moment (field-independent basis, Debye):
    X=              3.8142    Y=              0.3959    Z=             -0.0000  Tot=              3.8347
 Quadrupole moment (field-independent basis, Debye-Ang):
   XX=            -14.2869   YY=            -40.7886   ZZ=            -63.6676
   XY=            -16.8361   XZ=             -0.0003   YZ=             -0.0004

  Exact polarizability: 139.404  -9.175 114.188  -0.000   0.000  47.102
 Approx polarizability: 225.921 -18.350 201.304  -0.001   0.001  69.610

                      1                      2                      3
                      A                      A                      A
 Frequencies --     11.3525               109.0752               157.4322
 Red. masses --     12.4234                 5.0259                 4.8689
 Frc consts  --      0.0009                 0.0352                 0.0711
 IR Inten    --      0.0496                13.3960                 7.4834

                      4                      5                      6
                      A                      A                      A
 Frequencies --    215.7377               279.8707               299.3794
 Red. masses --      6.2876                 1.0646                 1.1438
 Frc consts  --      0.1724                 0.0491                 0.0604
 IR Inten    --      9.7259                 7.3971               134.6489

                      7                      8                      9
                      A                      A                      A
 Frequencies --    342.2299               357.5735               394.7340
 Red. masses --      6.2786                 4.2466                 7.5765
 Frc consts  --      0.4333                 0.3199                 0.6956
 IR Inten    --      0.2080                 0.4682                 0.4523

                     10                     11                     12
                      A                      A                      A
 Frequencies --    413.2706               428.2429               437.7763
 Red. masses --      6.0775                 1.8588                 1.2703
 Frc consts  --      0.6116                 0.2008                 0.1434
 IR Inten    --      0.4781               102.7190                20.6063

                     13                     14                     15
                      A                      A                      A
 Frequencies --    477.2046               497.9875               547.8593
 Red. masses --      7.8614                 1.3926                 2.7047
 Frc consts  --      1.0548                 0.2035                 0.4783
 IR Inten    --      2.2289               196.0468                76.5191

                     16                     17                     18
                      A                      A                      A
 Frequencies --    564.7784               656.2535               680.0575
 Red. masses --      4.0591                 4.3571                 5.1052
 Frc consts  --      0.7629                 1.1056                 1.3911
 IR Inten    --     19.8940                44.5672                 1.5842

                     19                     20                     21
                      A                      A                      A
 Frequencies --    732.2047               777.7579               809.7936
 Red. masses --      5.3349                 5.1672                 6.0036
 Frc consts  --      1.6852                 1.8416                 2.3196
 IR Inten    --     14.8533                 0.0223                44.8096

                     22                     23                     24
                      A                      A                      A
 Frequencies --    843.2367               892.0862               965.1580
 Red. masses --      1.6625                 1.5169                 4.8169
 Frc consts  --      0.6965                 0.7113                 2.6437
 IR Inten    --     46.1202                14.0336                26.8887

                     25                     26                     27
                      A                      A                      A
 Frequencies --    970.6097              1093.6545              1124.0552
 Red. masses --      1.3381                 3.0982                 1.1258
 Frc consts  --      0.7427                 2.1833                 0.8380
 IR Inten    --      0.5800               168.8047               175.5664

                     28                     29                     30
                      A                      A                      A
 Frequencies --   1152.0557              1189.1541              1194.3473
 Red. masses --      1.7659                 1.5213                 1.2026
 Frc consts  --      1.3809                 1.2675                 1.0107
 IR Inten    --    168.8998               254.9805               129.4197

                     31                     32                     33
                      A                      A                      A
 Frequencies --   1209.0027              1296.8904              1319.1504
 Red. masses --      1.2015                 1.9301                 9.9451
 Frc consts  --      1.0347                 1.9127                10.1964
 IR Inten    --    106.7184                24.7147                84.6777

                     34                     35                     36
                      A                      A                      A
 Frequencies --   1343.2339              1415.0075              1450.7872
 Red. masses --      1.6998                 4.8742                 3.1506
 Frc consts  --      1.8070                 5.7500                 3.9071
 IR Inten    --    223.9514                68.7087                13.9164

                     37                     38                     39
                      A                      A                      A
 Frequencies --   1502.8519              1550.5187              1602.5489
 Red. masses --      4.5299                 3.6388                 4.3754
 Frc consts  --      6.0280                 5.1543                 6.6204
 IR Inten    --     81.4374               474.2868               552.7269

                     40                     41                     42
                      A                      A                      A
 Frequencies --   1612.8756              1683.1954              3188.7128
 Red. masses --      5.7102                 5.9149                 1.0895
 Frc consts  --      8.7520                 9.8733                 6.5271
 IR Inten    --    221.4421                43.5611                 2.9154

                     43                     44                     45
                      A                      A                      A
 Frequencies --   3202.2175              3245.6877              3753.4120
 Red. masses --      1.0959                 1.0921                 1.0682
 Frc consts  --      6.6210                 6.7782                 8.8664
 IR Inten    --      0.2727                 7.5507               117.6440

                     46                     47                     48
                      A                      A                      A
 Frequencies --   3771.4509              3793.8880              3823.3830
 Red. masses --      1.0668                 1.0668                 1.0671
 Frc consts  --      8.9406                 9.0469                 9.1911
 IR Inten    --    476.7025               160.2893               133.4604

 - Thermochemistry -
 -------------------
 Temperature   298.150 Kelvin.  Pressure   1.00000 Atm.
 Atom     1 has atomic number  6 and mass  12.00000

 Molecular mass:   155.03443 amu.
 Principal axes and moments of inertia in atomic units:
                           1         2         3
     Eigenvalues --  1021.951061999.361003021.31206
           X            0.99960  -0.02831   0.00001
           Y            0.02831   0.99960  -0.00000
           Z           -0.00001   0.00000   1.00000
 This molecule is an asymmetric top.
 Rotational symmetry number  1.
 Warning -- assumption of classical behavior for rotation
           may cause significant error
 Rotational temperatures (Kelvin)      0.08475     0.04332     0.02867
 Rotational constants (GHZ):           1.76598     0.90266     0.59734
 Zero-point vibrational energy     355169.7 (Joules/Mol)
                                   84.88760 (Kcal/Mol)
 Warning -- explicit consideration of  16 degrees of freedom as
           vibrations may cause significant error
 Vibrational temperatures:     16.33   156.93   226.51   310.40   402.67
          (Kelvin)            430.74   492.39   514.47   567.93   594.60
                              616.15   629.86   686.59   716.49   788.25
                              812.59   944.20   978.45  1053.48  1119.02
                             1165.11  1213.23  1283.51  1388.65  1396.49
                             1573.52  1617.26  1657.55  1710.93  1718.40
                             1739.48  1865.93  1897.96  1932.61  2035.88
                             2087.36  2162.27  2230.85  2305.71  2320.57
                             2421.74  4587.84  4607.27  4669.81  5400.32
                             5426.27  5458.55  5500.99

 Zero-point correction=                           0.135277 (Hartree/Particle)
 Thermal correction to Energy=                    0.145410
 Thermal correction to Enthalpy=                  0.146354
 Thermal correction to Gibbs Free Energy=         0.098584
 Sum of electronic and zero-point Energies=           -571.505873
 Sum of electronic and thermal Energies=              -571.495741
 Sum of electronic and thermal Enthalpies=            -571.494797
 Sum of electronic and thermal Free Energies=         -571.542567

                     E (Thermal)             CV                S
                      KCal/Mol        Cal/Mol-Kelvin    Cal/Mol-Kelvin
 Total                   91.246             38.748            100.540
 Electronic               0.000              0.000              0.000
 Translational            0.889              2.981             41.025
 Rotational               0.889              2.981             30.202
 Vibrational             89.468             32.786             29.313
 Vibration     1          0.593              1.987              7.759
 Vibration     2          0.606              1.942              3.285
 Vibration     3          0.621              1.894              2.580
 Vibration     4          0.645              1.817              1.995
 Vibration     5          0.680              1.711              1.534
 Vibration     6          0.692              1.675              1.420
 Vibration     7          0.721              1.591              1.202
 Vibration     8          0.733              1.560              1.133
 Vibration     9          0.762              1.481              0.982
 Vibration    10          0.777              1.441              0.915
 Vibration    11          0.790              1.409              0.864
 Vibration    12          0.798              1.388              0.834
 Vibration    13          0.834              1.301              0.718
 Vibration    14          0.853              1.254              0.663
 Vibration    15          0.903              1.144              0.549
 Vibration    16          0.921              1.107              0.514

 Optimization completed.
    -- Stationary point found.
 Normal termination of Gaussian 09 at Tue Dec 17 13:45:31 2024.
