 Gaussian 09, Revision E.01,
 Gaussian 09:  ES64L-G09RevE.01 30-Nov-2015

 ----------------------------------------------------
 # opt freq b3lyp/6-31+g(d,p) EmpiricalDispersion=GD3
 ----------------------------------------------------

 ----------
 [No Title]
 ----------
 Symbolic Z-matrix:
 Charge =  0 Multiplicity = 1

 SCF Done:  E(RB3LYP) =  -571.307391262     A.U. after   15 cycles
 SCF Done:  E(RB3LYP) =  -571.307413732     A.U. after   10 cycles
 SCF Done:  E(RB3LYP) =  -571.307414827     A.U. after   10 cycles
 SCF Done:  E(RB3LYP) =  -571.307414829     A.U. after   10 cycles
 SCF Done:  E(RB3LYP) =  -571.307416583     A.U. after   10 cycles
 Optimization completed.
    -- Stationary point found.
 Normal termination of Gaussian 09 at Tue Dec 17 10:33:39 2024.

 ----------------------------------------------------------------------
 #N Geom=AllCheck Guess=TCheck SCRF=Check GenChk RB3LYP/6-31+G(d,p) Fre
 q
 ----------------------------------------------------------------------

 Structure from the checkpoint file:  "b3lypD3DHB.chk"
 ----------
 [No Title]
 ----------
 Charge =  0 Multiplicity = 1

                         Standard orientation:
 ---------------------------------------------------------------------
 Center     Atomic      Atomic             Coordinates (Angstroms)
 Number     Number       Type             X           Y           Z
 ---------------------------------------------------------------------
      1          6           0        0.233610    1.274455    0.000012
      2          6           0        0.467803   -0.120760    0.000005
      3          6           0       -0.631221   -0.997043    0.000010
      4          6           0       -1.938045   -0.520034    0.000006
      5          6           0       -2.166080    0.859462    0.000006
      6          6           0       -1.087262    1.740701    0.000016
      7          8           0       -2.950129   -1.449657   -0.000017
      8          6           0        1.848747   -0.673412   -0.000016
      9          8           0        1.858429   -2.040780    0.000127
     10          8           0        2.883217   -0.038006   -0.000201
     11          8           0        1.285199    2.139413    0.000026
     12          1           0       -0.465286   -2.066607    0.000012
     13          1           0       -3.180735    1.250794   -0.000003
     14          1           0       -1.271786    2.812376    0.000023
     15          1           0       -3.809685   -1.009819    0.000138
     16          1           0        2.793425   -2.302353    0.000054
     17          1           0        0.955029    3.047625    0.000051
 ---------------------------------------------------------------------

 SCF Done:  E(RB3LYP) =  -571.307416583     A.U. after    1 cycles

 The electronic state is 1-A.
 Alpha  occ. eigenvalues --  -19.20278 -19.19979 -19.19902 -19.14564 -10.32958
 Alpha  occ. eigenvalues --  -10.27657 -10.26745 -10.22377 -10.22233 -10.21779
 Alpha  occ. eigenvalues --  -10.21057  -1.10985  -1.08048  -1.07627  -1.01826
 Alpha  occ. eigenvalues --   -0.87417  -0.78894  -0.75771  -0.68027  -0.64882
 Alpha  occ. eigenvalues --   -0.61641  -0.56628  -0.55854  -0.51082  -0.49583
 Alpha  occ. eigenvalues --   -0.48217  -0.45839  -0.45792  -0.43919  -0.42770
 Alpha  occ. eigenvalues --   -0.42251  -0.40752  -0.40085  -0.38020  -0.37005
 Alpha  occ. eigenvalues --   -0.32849  -0.32512  -0.27953  -0.27888  -0.22685
 Alpha virt. eigenvalues --   -0.06282  -0.01461  -0.01065  -0.00869   0.00730
 Alpha virt. eigenvalues --    0.01807   0.03934   0.04248   0.04980   0.05359
 Alpha virt. eigenvalues --    0.06286   0.07719   0.08011   0.08765   0.09214

 Mulliken charges:
               1
     1  C   -0.933485
     2  C    0.579905
     3  C   -0.140576
     4  C   -0.216226
     5  C    0.159851
     6  C    0.127270
     7  O   -0.539112
     8  C    0.880753
     9  O   -0.487274
    10  O   -0.456129
    11  O   -0.481537
    12  H    0.168126
    13  H    0.115684
    14  H    0.112559
    15  H    0.357444
    16  H    0.386228
    17  H    0.366518
 Sum of Mulliken charges =  -0.00000

 Dipole moment (field-independent basis, Debye):
    X=             -3.8002    Y=              1.8220    Z=              0.0005  Tot=              4.2144
 Quadrupole moment (field-independent basis, Debye-Ang):
   XX=            -58.7682   YY=            -53.6955   ZZ=            -65.6250
   XY=            -10.0914   XZ=             -0.0001   YZ=              0.0004

  Exact polarizability: 130.505  -0.881 112.179  -0.002   0.000  52.124
 Approx polarizability: 201.249   7.508 184.365  -0.003  -0.002  76.462

                      1                      2                      3
                      A                      A                      A
 Frequencies --     21.0076               119.4607               169.0763
 Red. masses --     11.6197                 5.5051                 5.1846
 Frc consts  --      0.0030                 0.0463                 0.0873
 IR Inten    --      2.1633                 3.0266                 4.8721

                      4                      5                      6
                      A                      A                      A
 Frequencies --    204.0831               254.3306               326.7784
 Red. masses --      7.6561                 1.0998                 6.8935
 Frc consts  --      0.1879                 0.0419                 0.4337
 IR Inten    --      3.1554               109.4175                 0.8074

                      7                      8                      9
                      A                      A                      A
 Frequencies --    343.5344               369.1280               398.0240
 Red. masses --      1.1507                 5.2982                 8.1260
 Frc consts  --      0.0800                 0.4253                 0.7585
 IR Inten    --     96.6336                 5.5885                 2.6799

                     10                     11                     12
                      A                      A                      A
 Frequencies --    404.6517               435.2842               482.3256
 Red. masses --      7.0780                 3.0439                 8.0600
 Frc consts  --      0.6828                 0.3398                 1.1048
 IR Inten    --      1.2966                 5.4229                 0.8479

                     13                     14                     15
                      A                      A                      A
 Frequencies --    546.4678               548.2339               587.9917
 Red. masses --      2.1930                 4.0277                 1.4194
 Frc consts  --      0.3858                 0.7132                 0.2891
 IR Inten    --      0.1180                36.2113               117.5727

                     16                     17                     18
                      A                      A                      A
 Frequencies --    663.4482               681.1879               730.7761
 Red. masses --      4.9982                 4.2661                 5.5578
 Frc consts  --      1.2962                 1.1663                 1.7487
 IR Inten    --     43.6925                18.7995                21.0503

                     19                     20                     21
                      A                      A                      A
 Frequencies --    791.8090               800.5524               819.4065
 Red. masses --      2.8107                 6.0602                 2.3420
 Frc consts  --      1.0383                 2.2883                 0.9265
 IR Inten    --      0.1704                57.3590                59.9689

                     22                     23                     24
                      A                      A                      A
 Frequencies --    905.4722               932.3266               953.6102
 Red. masses --      1.3904                 1.3703                 5.7225
 Frc consts  --      0.6716                 0.7018                 3.0661
 IR Inten    --      6.3326                 4.8531                13.3341

                     25                     26                     27
                      A                      A                      A
 Frequencies --   1064.2998              1151.7565              1179.6720
 Red. masses --      3.7495                 1.8921                 1.4832
 Frc consts  --      2.5024                 1.4788                 1.2161
 IR Inten    --    128.6216                87.3941               298.5556

                     28                     29                     30
                      A                      A                      A
 Frequencies --   1189.4036              1201.1487              1276.9171
 Red. masses --      1.2910                 1.1809                 2.1304
 Frc consts  --      1.0761                 1.0038                 2.0466
 IR Inten    --     21.7880               172.7372                56.3797

                     31                     32                     33
                      A                      A                      A
 Frequencies --   1301.3503              1332.3700              1352.7791
 Red. masses --      8.3857                 1.4965                 2.6697
 Frc consts  --      8.3672                 1.5652                 2.8785
 IR Inten    --      6.1229               202.4542               124.7286

                     34                     35                     36
                      A                      A                      A
 Frequencies --   1381.6895              1483.8562              1539.7156
 Red. masses --      4.3524                 3.2599                 2.9287
 Frc consts  --      4.8955                 4.2290                 4.0908
 IR Inten    --     10.4815                24.0130               167.3250

                     37                     38                     39
                      A                      A                      A
 Frequencies --   1637.9815              1673.4129              1799.1475
 Red. masses --      6.4220                 6.2637                 9.9490
 Frc consts  --     10.1517                10.3344                18.9743
 IR Inten    --     69.5684                 4.6793               394.9900

                     40                     41                     42
                      A                      A                      A
 Frequencies --   3166.0645              3182.6945              3244.2338
 Red. masses --      1.0875                 1.0951                 1.0912
 Frc consts  --      6.4229                 6.5360                 6.7670
 IR Inten    --     16.4975                10.5490                 2.8581

                     43                     44                     45
                      A                      A                      A
 Frequencies --   3774.7498              3819.6948              3836.7170
 Red. masses --      1.0648                 1.0663                 1.0665
 Frc consts  --      8.9389                 9.1657                 9.2499
 IR Inten    --     95.1384                59.3357                64.8169

 - Thermochemistry -
 -------------------
 Temperature   298.150 Kelvin.  Pressure   1.00000 Atm.
 Atom     1 has atomic number  6 and mass  12.00000

 Molecular mass:   154.02661 amu.
 Principal axes and moments of inertia in atomic units:
                           1         2         3
     Eigenvalues --  1029.841971978.075143007.91710
           X            0.99972  -0.02357   0.00001
           Y            0.02357   0.99972   0.00001
           Z           -0.00001  -0.00001   1.00000
 This molecule is an asymmetric top.
 Rotational symmetry number  1.
 Warning -- assumption of classical behavior for rotation
           may cause significant error
 Rotational temperatures (Kelvin)      0.08410     0.04379     0.02880
 Rotational constants (GHZ):           1.75244     0.91237     0.60000
 Zero-point vibrational energy     323462.0 (Joules/Mol)
                                   77.30927 (Kcal/Mol)
 Warning -- explicit consideration of  15 degrees of freedom as
           vibrations may cause significant error
 Vibrational temperatures:     30.23   171.88   243.26   293.63   365.92
          (Kelvin)            470.16   494.27   531.09   572.67   582.20
                              626.28   693.96   786.24   788.79   845.99
                              954.55   980.08  1051.42  1139.24  1151.81
                             1178.94  1302.77  1341.41  1372.03  1531.29
                             1657.12  1697.28  1711.28  1728.18  1837.20
                             1872.35  1916.98  1946.34  1987.94  2134.94
                             2215.30  2356.69  2407.66  2588.57  4555.25
                             4579.18  4667.72  5431.02  5495.68  5520.17

 Zero-point correction=                           0.123200 (Hartree/Particle)
 Thermal correction to Energy=                    0.132944
 Thermal correction to Enthalpy=                  0.133888
 Thermal correction to Gibbs Free Energy=         0.087313
 Sum of electronic and zero-point Energies=           -571.184216
 Sum of electronic and thermal Energies=              -571.174473
 Sum of electronic and thermal Enthalpies=            -571.173529
 Sum of electronic and thermal Free Energies=         -571.220103

                     E (Thermal)             CV                S
                      KCal/Mol        Cal/Mol-Kelvin    Cal/Mol-Kelvin
 Total                   83.424             37.032             98.025
 Electronic               0.000              0.000              0.000
 Translational            0.889              2.981             41.006
 Rotational               0.889              2.981             30.195
 Vibrational             81.646             31.071             26.825
 Vibration     1          0.593              1.986              6.537
 Vibration     2          0.609              1.933              3.109
 Vibration     3          0.625              1.881              2.446
 Vibration     4          0.640              1.834              2.096
 Vibration     5          0.665              1.755              1.700
 Vibration     6          0.710              1.622              1.276
 Vibration     7          0.722              1.588              1.196
 Vibration     8          0.741              1.536              1.083
 Vibration     9          0.764              1.474              0.970
 Vibration    10          0.770              1.460              0.946
 Vibration    11          0.796              1.393              0.842
 Vibration    12          0.839              1.289              0.704
 Vibration    13          0.902              1.147              0.552
 Vibration    14          0.903              1.144              0.548
 Vibration    15          0.945              1.057              0.471

 Optimization completed.
    -- Stationary point found.
 Normal termination of Gaussian 09 at Tue Dec 17 10:34:25 2024.
