 Gaussian 09, Revision E.01,
 Gaussian 09:  ES64L-G09RevE.01 30-Nov-2015

 -----------------------------------------------------
 # opt freq b3pw91/6-31+g(d,p) EmpiricalDispersion=GD3
 -----------------------------------------------------

 ----------
 [No Title]
 ----------
 Symbolic Z-matrix:
 Charge =  1 Multiplicity = 1

 SCF Done:  E(RB3PW91) =  -571.422212107     A.U. after   15 cycles
 SCF Done:  E(RB3PW91) =  -571.422217180     A.U. after   10 cycles
 SCF Done:  E(RB3PW91) =  -571.422219125     A.U. after    9 cycles
 Optimization completed.
    -- Stationary point found.
 Normal termination of Gaussian 09 at Tue Dec 17 21:59:14 2024.

 ----------------------------------------------------------------------
 #N Geom=AllCheck Guess=TCheck SCRF=Check GenChk RB3PW91/6-31+G(d,p) Fr
 eq
 ----------------------------------------------------------------------

 Structure from the checkpoint file:  "B3PW91D3DHByang.chk"
 ----------
 [No Title]
 ----------
 Charge =  1 Multiplicity = 1

                         Standard orientation:
 ---------------------------------------------------------------------
 Center     Atomic      Atomic             Coordinates (Angstroms)
 Number     Number       Type             X           Y           Z
 ---------------------------------------------------------------------
      1          6           0        0.219073    1.275560   -0.000006
      2          6           0        0.424782   -0.137262   -0.000001
      3          6           0       -0.693583   -1.013136    0.000011
      4          6           0       -1.981025   -0.515685    0.000018
      5          6           0       -2.171690    0.882345    0.000013
      6          6           0       -1.096161    1.753353    0.000000
      7          8           0       -2.994420   -1.405654    0.000034
      8          6           0        1.721985   -0.717326   -0.000015
      9          8           0        1.805458   -2.024222   -0.000090
     10          8           0        2.785134    0.034071    0.000063
     11          8           0        1.276836    2.094092   -0.000023
     12          1           0       -0.550270   -2.086748    0.000018
     13          1           0       -3.179651    1.290355    0.000021
     14          1           0       -1.273635    2.825243   -0.000004
     15          1           0       -3.857709   -0.974373    0.000025
     16          1           0        2.701489   -2.393931   -0.000007
     17          1           0        3.634354   -0.434933   -0.000020
     18          1           0        1.001079    3.020994   -0.000035
 ---------------------------------------------------------------------

 SCF Done:  E(RB3PW91) =  -571.422219125     A.U. after    1 cycles

 The electronic state is 1-A.
 Alpha  occ. eigenvalues --  -19.41471 -19.41469 -19.34889 -19.31719 -10.54438
 Alpha  occ. eigenvalues --  -10.42947 -10.39863 -10.37840 -10.35964 -10.34935
 Alpha  occ. eigenvalues --  -10.34923  -1.36004  -1.28046  -1.24976  -1.21672
 Alpha  occ. eigenvalues --   -1.03769  -0.97276  -0.91446  -0.88478  -0.84389
 Alpha  occ. eigenvalues --   -0.80207  -0.78981  -0.73775  -0.71782  -0.68164
 Alpha  occ. eigenvalues --   -0.68031  -0.66675  -0.63303  -0.60129  -0.59048
 Alpha  occ. eigenvalues --   -0.58861  -0.58179  -0.56858  -0.56715  -0.55482
 Alpha  occ. eigenvalues --   -0.52252  -0.50441  -0.47850  -0.43998  -0.37400
 Alpha virt. eigenvalues --   -0.25825  -0.17131  -0.15878  -0.12845  -0.11572
 Alpha virt. eigenvalues --   -0.10900  -0.09862  -0.08651  -0.07570  -0.06684
 Alpha virt. eigenvalues --   -0.05288  -0.04044  -0.03001  -0.02834  -0.02341

 Mulliken charges:
               1
     1  C   -0.867342
     2  C    0.384018
     3  C    0.028810
     4  C   -0.523154
     5  C    0.302501
     6  C    0.232139
     7  O   -0.483557
     8  C    0.936478
     9  O   -0.378483
    10  O   -0.379553
    11  O   -0.466863
    12  H    0.208306
    13  H    0.185518
    14  H    0.180795
    15  H    0.384092
    16  H    0.409787
    17  H    0.426873
    18  H    0.419636
 Sum of Mulliken charges =   1.00000

 Dipole moment (field-independent basis, Debye):
    X=              3.8796    Y=              0.3473    Z=             -0.0001  Tot=              3.8951
 Quadrupole moment (field-independent basis, Debye-Ang):
   XX=            -13.3440   YY=            -39.8445   ZZ=            -63.3368
   XY=            -16.7215   XZ=             -0.0003   YZ=             -0.0004

  Exact polarizability: 137.459  -8.827 112.817  -0.001   0.000  46.094
 Approx polarizability: 222.684 -17.279 199.115  -0.001   0.001  67.112

                      1                      2                      3
                      A                      A                      A
 Frequencies --      8.7761               107.5123               157.1085
 Red. masses --     12.3262                 4.9874                 4.8655
 Frc consts  --      0.0006                 0.0340                 0.0708
 IR Inten    --      0.0984                13.8577                 8.7491

                      4                      5                      6
                      A                      A                      A
 Frequencies --    213.8610               285.1350               308.1210
 Red. masses --      6.2820                 1.0658                 1.1459
 Frc consts  --      0.1693                 0.0511                 0.0641
 IR Inten    --      9.9300                 7.7422               135.1010

                      7                      8                      9
                      A                      A                      A
 Frequencies --    341.3659               358.3855               394.8601
 Red. masses --      6.2719                 4.1943                 7.5629
 Frc consts  --      0.4306                 0.3174                 0.6947
 IR Inten    --      0.2102                 0.5295                 0.4908

                     10                     11                     12
                      A                      A                      A
 Frequencies --    412.4027               426.7551               439.6594
 Red. masses --      6.0267                 1.9428                 1.2550
 Frc consts  --      0.6039                 0.2085                 0.1429
 IR Inten    --      0.5620                93.1942                28.4316

                     13                     14                     15
                      A                      A                      A
 Frequencies --    477.0627               502.3679               547.9158
 Red. masses --      7.8098                 1.3697                 2.6552
 Frc consts  --      1.0472                 0.2037                 0.4696
 IR Inten    --      2.2085               181.0397                92.0537

                     16                     17                     18
                      A                      A                      A
 Frequencies --    564.5807               656.5194               681.0413
 Red. masses --      4.0675                 4.3563                 5.0478
 Frc consts  --      0.7639                 1.1063                 1.3794
 IR Inten    --     20.3760                45.7679                 1.9382

                     19                     20                     21
                      A                      A                      A
 Frequencies --    735.1416               778.4460               813.8592
 Red. masses --      5.2065                 5.3051                 5.9183
 Frc consts  --      1.6578                 1.8941                 2.3097
 IR Inten    --     14.9280                 0.0082                39.1384

                     22                     23                     24
                      A                      A                      A
 Frequencies --    840.6305               886.7723               968.1291
 Red. masses --      1.6714                 1.5218                 1.3377
 Frc consts  --      0.6959                 0.7051                 0.7387
 IR Inten    --     47.7876                16.1014                 0.5676

                     25                     26                     27
                      A                      A                      A
 Frequencies --    971.6373              1100.2782              1123.0387
 Red. masses --      4.5692                 3.0143                 1.1211
 Frc consts  --      2.5416                 2.1500                 0.8331
 IR Inten    --     24.2408               141.5355               177.1947

                     28                     29                     30
                      A                      A                      A
 Frequencies --   1156.4772              1191.6852              1196.1488
 Red. masses --      1.7646                 1.4120                 1.2195
 Frc consts  --      1.3905                 1.1814                 1.0280
 IR Inten    --    185.1514               251.1557                90.1216

                     31                     32                     33
                      A                      A                      A
 Frequencies --   1210.0770              1301.2005              1340.5676
 Red. masses --      1.2121                 1.8008                 4.1932
 Frc consts  --      1.0457                 1.7964                 4.4399
 IR Inten    --    123.3682                 7.5592               147.4224

                     34                     35                     36
                      A                      A                      A
 Frequencies --   1347.4581              1433.4002              1462.2267
 Red. masses --      2.2138                 4.7642                 3.3865
 Frc consts  --      2.3682                 5.7673                 4.2661
 IR Inten    --    175.7260                66.0170                11.9434

                     37                     38                     39
                      A                      A                      A
 Frequencies --   1522.2210              1565.5451              1616.8172
 Red. masses --      4.7133                 4.3782                 4.6497
 Frc consts  --      6.4347                 6.3223                 7.1613
 IR Inten    --     39.3334               524.6594               562.2001

                     40                     41                     42
                      A                      A                      A
 Frequencies --   1626.7556              1699.3623              3199.2848
 Red. masses --      6.0207                 6.2428                 1.0896
 Frc consts  --      9.3873                10.6219                 6.5710
 IR Inten    --    244.9575                41.9330                 2.6665

                     43                     44                     45
                      A                      A                      A
 Frequencies --   3213.3866              3254.6681              3786.8635
 Red. masses --      1.0963                 1.0923                 1.0682
 Frc consts  --      6.6698                 6.8172                 9.0250
 IR Inten    --      0.4678                 8.0335               117.6403

                     46                     47                     48
                      A                      A                      A
 Frequencies --   3804.2893              3826.5302              3857.4825
 Red. masses --      1.0668                 1.0668                 1.0671
 Frc consts  --      9.0967                 9.2029                 9.3554
 IR Inten    --    492.1408               165.2436               139.2846

 - Thermochemistry -
 -------------------
 Temperature   298.150 Kelvin.  Pressure   1.00000 Atm.
 Atom     1 has atomic number  6 and mass  12.00000

 Molecular mass:   155.03443 amu.
 Principal axes and moments of inertia in atomic units:
                           1         2         3
     Eigenvalues --  1017.649301988.802833006.45212
           X            0.99959  -0.02851   0.00001
           Y            0.02851   0.99959  -0.00000
           Z           -0.00001   0.00000   1.00000
 This molecule is an asymmetric top.
 Rotational symmetry number  1.
 Warning -- assumption of classical behavior for rotation
           may cause significant error
 Rotational temperatures (Kelvin)      0.08511     0.04355     0.02881
 Rotational constants (GHZ):           1.77344     0.90745     0.60029
 Zero-point vibrational energy     357167.9 (Joules/Mol)
                                   85.36518 (Kcal/Mol)
 Warning -- explicit consideration of  16 degrees of freedom as
           vibrations may cause significant error
 Vibrational temperatures:     12.63   154.69   226.04   307.70   410.25
          (Kelvin)            443.32   491.15   515.64   568.11   593.35
                              614.00   632.57   686.39   722.79   788.33
                              812.30   944.58   979.87  1057.70  1120.01
                             1170.96  1209.48  1275.87  1392.92  1397.97
                             1583.05  1615.80  1663.91  1714.57  1720.99
                             1741.03  1872.13  1928.78  1938.69  2062.34
                             2103.82  2190.13  2252.47  2326.24  2340.54
                             2445.00  4603.05  4623.34  4682.74  5448.45
                             5473.52  5505.52  5550.05

 Zero-point correction=                           0.136038 (Hartree/Particle)
 Thermal correction to Energy=                    0.146156
 Thermal correction to Enthalpy=                  0.147100
 Thermal correction to Gibbs Free Energy=         0.099121
 Sum of electronic and zero-point Energies=           -571.286181
 Sum of electronic and thermal Energies=              -571.276063
 Sum of electronic and thermal Enthalpies=            -571.275119
 Sum of electronic and thermal Free Energies=         -571.323098

                     E (Thermal)             CV                S
                      KCal/Mol        Cal/Mol-Kelvin    Cal/Mol-Kelvin
 Total                   91.714             38.659            100.981
 Electronic               0.000              0.000              0.000
 Translational            0.889              2.981             41.025
 Rotational               0.889              2.981             30.188
 Vibrational             89.937             32.697             29.768
 Vibration     1          0.593              1.987              8.270
 Vibration     2          0.606              1.943              3.313
 Vibration     3          0.621              1.895              2.584
 Vibration     4          0.644              1.820              2.010
 Vibration     5          0.683              1.701              1.503
 Vibration     6          0.698              1.658              1.372
 Vibration     7          0.721              1.593              1.206
 Vibration     8          0.733              1.558              1.129
 Vibration     9          0.762              1.481              0.982
 Vibration    10          0.776              1.443              0.918
 Vibration    11          0.788              1.412              0.869
 Vibration    12          0.800              1.384              0.828
 Vibration    13          0.834              1.301              0.718
 Vibration    14          0.858              1.245              0.652
 Vibration    15          0.903              1.144              0.549
 Vibration    16          0.920              1.108              0.515

 Optimization completed.
    -- Stationary point found.
 Normal termination of Gaussian 09 at Tue Dec 17 21:59:57 2024.
