 Gaussian 09, Revision E.01,
 Gaussian 09:  ES64L-G09RevE.01 30-Nov-2015

 -----------------------------------------------------
 # opt freq b3pw91/6-31+g(d,p) empiricaldispersion=gd3
 -----------------------------------------------------

 ----------
 [No Title]
 ----------
 Symbolic Z-matrix:
 Charge =  0 Multiplicity = 1

 SCF Done:  E(RB3PW91) =  -571.085907284     A.U. after   15 cycles
 SCF Done:  E(RB3PW91) =  -571.086064674     A.U. after   11 cycles
 SCF Done:  E(RB3PW91) =  -571.086079336     A.U. after   10 cycles
 SCF Done:  E(RB3PW91) =  -571.086080248     A.U. after   10 cycles
 SCF Done:  E(RB3PW91) =  -571.086078805     A.U. after   10 cycles
 SCF Done:  E(RB3PW91) =  -571.086080891     A.U. after   10 cycles
 Optimization completed.
    -- Stationary point found.
 Normal termination of Gaussian 09 at Tue Dec 17 21:30:49 2024.

 ----------------------------------------------------------------------
 #N Geom=AllCheck Guess=TCheck SCRF=Check GenChk RB3PW91/6-31+G(d,p) Fr
 eq
 ----------------------------------------------------------------------

 Structure from the checkpoint file:  "B3PW91D3DHB.chk"
 ----------
 [No Title]
 ----------
 Charge =  0 Multiplicity = 1

                         Standard orientation:
 ---------------------------------------------------------------------
 Center     Atomic      Atomic             Coordinates (Angstroms)
 Number     Number       Type             X           Y           Z
 ---------------------------------------------------------------------
      1          6           0        0.235158    1.272922    0.000001
      2          6           0        0.467079   -0.120180   -0.000016
      3          6           0       -0.629202   -0.994709   -0.000003
      4          6           0       -1.935332   -0.520753    0.000014
      5          6           0       -2.161344    0.857241    0.000025
      6          6           0       -1.084495    1.736800    0.000023
      7          8           0       -2.942094   -1.445974    0.000009
      8          6           0        1.844750   -0.673346   -0.000056
      9          8           0        1.851760   -2.034269    0.000131
     10          8           0        2.877503   -0.038647   -0.000173
     11          8           0        1.281900    2.133486    0.000005
     12          1           0       -0.461909   -2.064766   -0.000011
     13          1           0       -3.175669    1.250514    0.000036
     14          1           0       -1.270929    2.808585    0.000037
     15          1           0       -3.798268   -1.004056    0.000092
     16          1           0        2.785465   -2.293465    0.000097
     17          1           0        0.949081    3.038581    0.000035
 ---------------------------------------------------------------------

 SCF Done:  E(RB3PW91) =  -571.086080891     A.U. after    1 cycles

 The electronic state is 1-A.
 Alpha  occ. eigenvalues --  -19.19210 -19.18915 -19.18834 -19.13292 -10.31310
 Alpha  occ. eigenvalues --  -10.26224 -10.25323 -10.20966 -10.20834 -10.20384
 Alpha  occ. eigenvalues --  -10.19651  -1.11561  -1.08663  -1.08256  -1.02140
 Alpha  occ. eigenvalues --   -0.87817  -0.79193  -0.76029  -0.68292  -0.65136
 Alpha  occ. eigenvalues --   -0.61951  -0.56843  -0.56086  -0.51293  -0.49641
 Alpha  occ. eigenvalues --   -0.48391  -0.46118  -0.45752  -0.43860  -0.43047
 Alpha  occ. eigenvalues --   -0.42381  -0.41010  -0.40050  -0.38056  -0.36809
 Alpha  occ. eigenvalues --   -0.32969  -0.32564  -0.28097  -0.27790  -0.22684
 Alpha virt. eigenvalues --   -0.06191  -0.00878  -0.00263   0.00336   0.01936
 Alpha virt. eigenvalues --    0.02860   0.04318   0.05463   0.06077   0.06464
 Alpha virt. eigenvalues --    0.07274   0.08919   0.09042   0.09947   0.10388

 Mulliken charges:
               1
     1  C   -1.148944
     2  C    0.689381
     3  C   -0.030982
     4  C   -0.466378
     5  C    0.233292
     6  C    0.226026
     7  O   -0.514307
     8  C    0.789694
     9  O   -0.467238
    10  O   -0.442459
    11  O   -0.456535
    12  H    0.190842
    13  H    0.140850
    14  H    0.137026
    15  H    0.361363
    16  H    0.389187
    17  H    0.369182
 Sum of Mulliken charges =   0.00000

 Dipole moment (field-independent basis, Debye):
    X=             -3.7625    Y=              1.7833    Z=              0.0003  Tot=              4.1637
 Quadrupole moment (field-independent basis, Debye-Ang):
   XX=            -57.6116   YY=            -52.6079   ZZ=            -65.2088
   XY=            -10.0111   XZ=              0.0003   YZ=              0.0004

  Exact polarizability: 128.688  -0.595 110.503  -0.002  -0.001  50.786
 Approx polarizability: 198.871   8.116 181.808  -0.003  -0.001  73.301

                      1                      2                      3
                      A                      A                      A
 Frequencies --     17.3783               118.0832               168.5734
 Red. masses --     11.6460                 5.4648                 5.1509
 Frc consts  --      0.0021                 0.0449                 0.0862
 IR Inten    --      2.1863                 3.0019                 5.5632

                      4                      5                      6
                      A                      A                      A
 Frequencies --    202.5167               264.3659               326.7347
 Red. masses --      7.6633                 1.0995                 6.8649
 Frc consts  --      0.1852                 0.0453                 0.4318
 IR Inten    --      3.1892               109.1133                 0.8447

                      7                      8                      9
                      A                      A                      A
 Frequencies --    347.7562               371.8353               398.2472
 Red. masses --      1.1848                 4.6760                 7.8230
 Frc consts  --      0.0844                 0.3809                 0.7310
 IR Inten    --     93.6028                 8.3273                 2.8689

                     10                     11                     12
                      A                      A                      A
 Frequencies --    404.0764               432.6545               482.3039
 Red. masses --      7.2326                 3.0573                 8.0001
 Frc consts  --      0.6958                 0.3372                 1.0964
 IR Inten    --      1.2167                 4.8889                 0.9707

                     13                     14                     15
                      A                      A                      A
 Frequencies --    546.3320               547.4328               590.4672
 Red. masses --      2.2062                 4.0272                 1.4078
 Frc consts  --      0.3880                 0.7111                 0.2892
 IR Inten    --      0.4577                37.3026               118.1693

                     16                     17                     18
                      A                      A                      A
 Frequencies --    663.8551               680.8943               733.1279
 Red. masses --      4.9715                 4.2274                 5.3812
 Frc consts  --      1.2909                 1.1547                 1.7041
 IR Inten    --     44.7469                18.6366                22.6860

                     19                     20                     21
                      A                      A                      A
 Frequencies --    792.7104               805.6668               818.1426
 Red. masses --      2.5981                 5.9665                 2.5448
 Frc consts  --      0.9619                 2.2818                 1.0036
 IR Inten    --      0.0016                51.3860                62.8759

                     22                     23                     24
                      A                      A                      A
 Frequencies --    901.3832               929.9477               961.0331
 Red. masses --      1.3947                 1.3694                 5.3568
 Frc consts  --      0.6676                 0.6977                 2.9150
 IR Inten    --      7.5493                 4.7546                12.6072

                     25                     26                     27
                      A                      A                      A
 Frequencies --   1072.9965              1157.9796              1182.3527
 Red. masses --      3.5008                 1.8072                 1.4424
 Frc consts  --      2.3747                 1.4278                 1.1880
 IR Inten    --    102.9817                69.1003               308.9447

                     28                     29                     30
                      A                      A                      A
 Frequencies --   1192.1415              1201.4524              1283.9972
 Red. masses --      1.2787                 1.1797                 1.9728
 Frc consts  --      1.0707                 1.0033                 1.9163
 IR Inten    --     25.3024               159.9932                34.8998

                     31                     32                     33
                      A                      A                      A
 Frequencies --   1324.1239              1331.6516              1365.2011
 Red. masses --      8.7553                 1.4749                 2.9466
 Frc consts  --      9.0443                 1.5409                 3.2357
 IR Inten    --      2.4172               227.4229               154.0465

                     34                     35                     36
                      A                      A                      A
 Frequencies --   1401.9036              1492.1469              1549.5401
 Red. masses --      5.2160                 3.4452                 3.2271
 Frc consts  --      6.0398                 4.5195                 4.5652
 IR Inten    --      6.5636                26.3559               201.0699

                     37                     38                     39
                      A                      A                      A
 Frequencies --   1652.0546              1689.3882              1819.9473
 Red. masses --      6.6814                 6.6067                10.1552
 Frc consts  --     10.7440                11.1095                19.8179
 IR Inten    --     66.0428                 5.6047               392.4643

                     40                     41                     42
                      A                      A                      A
 Frequencies --   3177.1324              3194.1028              3252.6479
 Red. masses --      1.0876                 1.0956                 1.0915
 Frc consts  --      6.4684                 6.5858                 6.8035
 IR Inten    --     15.9646                 9.5518                 3.1203

                     43                     44                     45
                      A                      A                      A
 Frequencies --   3805.2903              3853.4324              3871.5033
 Red. masses --      1.0646                 1.0662                 1.0665
 Frc consts  --      9.0830                 9.3279                 9.4180
 IR Inten    --     98.6107                63.2487                69.1579

 - Thermochemistry -
 -------------------
 Temperature   298.150 Kelvin.  Pressure   1.00000 Atm.
 Atom     1 has atomic number  6 and mass  12.00000

 Molecular mass:   154.02661 amu.
 Principal axes and moments of inertia in atomic units:
                           1         2         3
     Eigenvalues --  1024.686731968.625282993.31201
           X            0.99972  -0.02372   0.00001
           Y            0.02372   0.99972   0.00001
           Z           -0.00001  -0.00001   1.00000
 This molecule is an asymmetric top.
 Rotational symmetry number  1.
 Warning -- assumption of classical behavior for rotation
           may cause significant error
 Rotational temperatures (Kelvin)      0.08453     0.04400     0.02894
 Rotational constants (GHZ):           1.76126     0.91675     0.60292
 Zero-point vibrational energy     325243.7 (Joules/Mol)
                                   77.73512 (Kcal/Mol)
 Warning -- explicit consideration of  15 degrees of freedom as
           vibrations may cause significant error
 Vibrational temperatures:     25.00   169.90   242.54   291.38   380.36
          (Kelvin)            470.10   500.34   534.99   572.99   581.38
                              622.49   693.93   786.05   787.63   849.55
                              955.14   979.65  1054.81  1140.53  1159.17
                             1177.12  1296.89  1337.99  1382.71  1543.80
                             1666.07  1701.14  1715.22  1728.62  1847.38
                             1905.12  1915.95  1964.22  2017.02  2146.86
                             2229.44  2376.94  2430.65  2618.49  4571.18
                             4595.60  4679.83  5474.96  5544.22  5570.22

 Zero-point correction=                           0.123879 (Hartree/Particle)
 Thermal correction to Energy=                    0.133610
 Thermal correction to Enthalpy=                  0.134554
 Thermal correction to Gibbs Free Energy=         0.087839
 Sum of electronic and zero-point Energies=           -570.962202
 Sum of electronic and thermal Energies=              -570.952471
 Sum of electronic and thermal Enthalpies=            -570.951527
 Sum of electronic and thermal Free Energies=         -570.998242

                     E (Thermal)             CV                S
                      KCal/Mol        Cal/Mol-Kelvin    Cal/Mol-Kelvin
 Total                   83.841             36.942             98.320
 Electronic               0.000              0.000              0.000
 Translational            0.889              2.981             41.006
 Rotational               0.889              2.981             30.180
 Vibrational             82.064             30.980             27.134
 Vibration     1          0.593              1.986              6.913
 Vibration     2          0.608              1.934              3.132
 Vibration     3          0.625              1.881              2.451
 Vibration     4          0.639              1.836              2.110
 Vibration     5          0.671              1.738              1.633
 Vibration     6          0.710              1.622              1.276
 Vibration     7          0.725              1.580              1.176
 Vibration     8          0.744              1.530              1.072
 Vibration     9          0.765              1.474              0.969
 Vibration    10          0.769              1.461              0.948
 Vibration    11          0.794              1.399              0.850
 Vibration    12          0.839              1.289              0.704
 Vibration    13          0.902              1.148              0.552
 Vibration    14          0.903              1.145              0.550
 Vibration    15          0.948              1.052              0.466

 Optimization completed.
    -- Stationary point found.
 Normal termination of Gaussian 09 at Tue Dec 17 21:31:38 2024.
