 Gaussian 09, Revision E.01,
 Gaussian 09:  ES64L-G09RevE.01 30-Nov-2015

 --------------------------------------------------------
 # opt freq cam-b3lyp/6-31+g(d,p) empiricaldispersion=gd3
 --------------------------------------------------------

 ----------
 [No Title]
 ----------
 Symbolic Z-matrix:
 Charge =  1 Multiplicity = 1

 SCF Done:  E(RCAM-B3LYP) =  -571.387245899     A.U. after   16 cycles
 SCF Done:  E(RCAM-B3LYP) =  -571.387706121     A.U. after   13 cycles
 SCF Done:  E(RCAM-B3LYP) =  -571.387728638     A.U. after   11 cycles
 SCF Done:  E(RCAM-B3LYP) =  -571.387736325     A.U. after   11 cycles
 SCF Done:  E(RCAM-B3LYP) =  -571.387736796     A.U. after    9 cycles
 Optimization completed.
    -- Stationary point found.
 Normal termination of Gaussian 09 at Tue Dec 17 13:51:14 2024.

 ----------------------------------------------------------------------
 #N Geom=AllCheck Guess=TCheck SCRF=Check GenChk RCAM-B3LYP/6-31+G(d,p)
  Freq
 ----------------------------------------------------------------------

 Structure from the checkpoint file:  "camB3lypD3DHByanggd3.chk"
 ----------
 [No Title]
 ----------
 Charge =  1 Multiplicity = 1

                         Standard orientation:
 ---------------------------------------------------------------------
 Center     Atomic      Atomic             Coordinates (Angstroms)
 Number     Number       Type             X           Y           Z
 ---------------------------------------------------------------------
      1          6           0        0.218490    1.269100   -0.000005
      2          6           0        0.422105   -0.136549    0.000001
      3          6           0       -0.695342   -1.011131    0.000011
      4          6           0       -1.976103   -0.512577    0.000017
      5          6           0       -2.165607    0.881703    0.000012
      6          6           0       -1.092737    1.750110    0.000000
      7          8           0       -2.994556   -1.400183    0.000030
      8          6           0        1.718338   -0.714968   -0.000010
      9          8           0        1.804922   -2.017733   -0.000083
     10          8           0        2.779538    0.031463    0.000055
     11          8           0        1.277105    2.086791   -0.000022
     12          1           0       -0.553116   -2.084101    0.000018
     13          1           0       -3.173305    1.287962    0.000018
     14          1           0       -1.266249    2.821589   -0.000005
     15          1           0       -3.859994   -0.972674    0.000030
     16          1           0        2.699393   -2.393978   -0.000013
     17          1           0        3.632987   -0.432083   -0.000020
     18          1           0        1.009332    3.016462   -0.000032
 ---------------------------------------------------------------------

 SCF Done:  E(RCAM-B3LYP) =  -571.387736796     A.U. after    1 cycles

 The electronic state is 1-A.
 Alpha  occ. eigenvalues --  -19.50107 -19.50100 -19.42914 -19.39554 -10.64040
 Alpha  occ. eigenvalues --  -10.51641 -10.48256 -10.46112 -10.44504 -10.43439
 Alpha  occ. eigenvalues --  -10.43302  -1.44293  -1.35975  -1.32437  -1.28868
 Alpha  occ. eigenvalues --   -1.11813  -1.05135  -0.99048  -0.95948  -0.91701
 Alpha  occ. eigenvalues --   -0.87536  -0.85953  -0.80854  -0.78437  -0.75605
 Alpha  occ. eigenvalues --   -0.75140  -0.73581  -0.69998  -0.66803  -0.65914
 Alpha  occ. eigenvalues --   -0.65355  -0.64792  -0.63543  -0.63216  -0.62044
 Alpha  occ. eigenvalues --   -0.58476  -0.56664  -0.54057  -0.49173  -0.42283
 Alpha virt. eigenvalues --   -0.21342  -0.14800  -0.10863  -0.09309  -0.08422
 Alpha virt. eigenvalues --   -0.07520  -0.07439  -0.06619  -0.05481  -0.05002
 Alpha virt. eigenvalues --   -0.03238  -0.02147  -0.01513  -0.00728  -0.00140

 Mulliken charges:
               1
     1  C   -0.571527
     2  C    0.238417
     3  C   -0.088595
     4  C   -0.213373
     5  C    0.196737
     6  C    0.093707
     7  O   -0.527444
     8  C    1.014192
     9  O   -0.404993
    10  O   -0.394907
    11  O   -0.512641
    12  H    0.193773
    13  H    0.167888
    14  H    0.162538
    15  H    0.383789
    16  H    0.412389
    17  H    0.429128
    18  H    0.420922
 Sum of Mulliken charges =   1.00000

 Dipole moment (field-independent basis, Debye):
    X=              4.1095    Y=              0.3189    Z=             -0.0000  Tot=              4.1218
 Quadrupole moment (field-independent basis, Debye-Ang):
   XX=            -14.2894   YY=            -40.9576   ZZ=            -63.7639
   XY=            -17.3914   XZ=             -0.0004   YZ=             -0.0003

  Exact polarizability: 134.353  -8.875 111.648  -0.000   0.000  46.585
 Approx polarizability: 156.944  -7.330 140.942  -0.000   0.000  59.264

                      1                      2                      3
                      A                      A                      A
 Frequencies --     35.1929               113.7297               161.1438
 Red. masses --     12.4614                 4.9860                 5.1981
 Frc consts  --      0.0091                 0.0380                 0.0795
 IR Inten    --      0.0211                14.2941                 7.6423

                      4                      5                      6
                      A                      A                      A
 Frequencies --    217.2016               283.0478               310.2930
 Red. masses --      6.2561                 1.1182                 1.0661
 Frc consts  --      0.1739                 0.0528                 0.0605
 IR Inten    --     10.7620               137.5117                11.4829

                      7                      8                      9
                      A                      A                      A
 Frequencies --    346.5445               365.6620               398.0989
 Red. masses --      6.2227                 4.2852                 7.4681
 Frc consts  --      0.4403                 0.3376                 0.6973
 IR Inten    --      0.3335                 0.0037                 0.6681

                     10                     11                     12
                      A                      A                      A
 Frequencies --    416.7724               433.5089               441.7025
 Red. masses --      5.9829                 1.5209                 1.5692
 Frc consts  --      0.6123                 0.1684                 0.1804
 IR Inten    --      0.7091               116.5181                 5.2117

                     13                     14                     15
                      A                      A                      A
 Frequencies --    483.6474               521.0799               558.6933
 Red. masses --      7.9045                 1.3564                 2.5900
 Frc consts  --      1.0894                 0.2170                 0.4763
 IR Inten    --      2.2798               168.1133               120.9511

                     16                     17                     18
                      A                      A                      A
 Frequencies --    570.9564               663.7010               697.1111
 Red. masses --      4.0066                 4.2735                 4.8602
 Frc consts  --      0.7695                 1.1091                 1.3916
 IR Inten    --     18.9822                51.1929                 3.5196

                     19                     20                     21
                      A                      A                      A
 Frequencies --    743.7660               798.8291               823.0234
 Red. masses --      5.1628                 4.9799                 5.8033
 Frc consts  --      1.6827                 1.8723                 2.3161
 IR Inten    --     19.1717                 0.4582                39.9726

                     22                     23                     24
                      A                      A                      A
 Frequencies --    860.7316               914.4844               982.3819
 Red. masses --      1.7125                 1.5309                 4.4888
 Frc consts  --      0.7475                 0.7543                 2.5523
 IR Inten    --     50.1605                13.7537                26.2530

                     25                     26                     27
                      A                      A                      A
 Frequencies --    995.5137              1113.6017              1116.9263
 Red. masses --      1.3456                 2.0706                 1.3066
 Frc consts  --      0.7857                 1.5129                 0.9604
 IR Inten    --      0.5655               104.6260               226.6917

                     28                     29                     30
                      A                      A                      A
 Frequencies --   1164.0145              1191.8546              1195.8414
 Red. masses --      1.7581                 1.4524                 1.2357
 Frc consts  --      1.4035                 1.2156                 1.0411
 IR Inten    --    266.6670               261.7763               106.7377

                     31                     32                     33
                      A                      A                      A
 Frequencies --   1213.0300              1308.5173              1335.1254
 Red. masses --      1.1993                 1.8549                 9.3127
 Frc consts  --      1.0397                 1.8713                 9.7807
 IR Inten    --    101.7541                 7.7873               102.2245

                     34                     35                     36
                      A                      A                      A
 Frequencies --   1355.4344              1424.1044              1477.2800
 Red. masses --      1.6829                 4.6151                 3.5651
 Frc consts  --      1.8216                 5.5146                 4.5840
 IR Inten    --    258.2586                61.3628                12.2826

                     37                     38                     39
                      A                      A                      A
 Frequencies --   1537.8802              1579.3881              1625.1937
 Red. masses --      4.5889                 4.2742                 4.8009
 Frc consts  --      6.3945                 6.2818                 7.4711
 IR Inten    --     45.3927               527.6794               845.4633

                     40                     41                     42
                      A                      A                      A
 Frequencies --   1653.2092              1722.8557              3211.4833
 Red. masses --      6.5034                 6.3672                 1.0905
 Frc consts  --     10.4724                11.1352                 6.6263
 IR Inten    --    109.9421                38.6002                 2.0220

                     43                     44                     45
                      A                      A                      A
 Frequencies --   3225.4394              3265.0540              3785.1658
 Red. masses --      1.0968                 1.0929                 1.0683
 Frc consts  --      6.7227                 6.8646                 9.0177
 IR Inten    --      0.9167                 9.2314               110.5942

                     46                     47                     48
                      A                      A                      A
 Frequencies --   3803.3788              3835.1865              3866.5756
 Red. masses --      1.0669                 1.0668                 1.0672
 Frc consts  --      9.0930                 9.2450                 9.4003
 IR Inten    --    554.0694               182.0716               146.1500

 - Thermochemistry -
 -------------------
 Temperature   298.150 Kelvin.  Pressure   1.00000 Atm.
 Atom     1 has atomic number  6 and mass  12.00000

 Molecular mass:   155.03443 amu.
 Principal axes and moments of inertia in atomic units:
                           1         2         3
     Eigenvalues --  1011.579531984.001472995.58100
           X            0.99960  -0.02819   0.00001
           Y            0.02819   0.99960  -0.00000
           Z           -0.00001   0.00000   1.00000
 This molecule is an asymmetric top.
 Rotational symmetry number  1.
 Warning -- assumption of classical behavior for rotation
           may cause significant error
 Rotational temperatures (Kelvin)      0.08562     0.04366     0.02891
 Rotational constants (GHZ):           1.78408     0.90965     0.60247
 Zero-point vibrational energy     359737.2 (Joules/Mol)
                                   85.97925 (Kcal/Mol)
 Warning -- explicit consideration of  16 degrees of freedom as
           vibrations may cause significant error
 Vibrational temperatures:     50.63   163.63   231.85   312.50   407.24
          (Kelvin)            446.44   498.60   526.11   572.77   599.64
                              623.72   635.51   695.86   749.72   803.83
                              821.48   954.92  1002.99  1070.11  1149.34
                             1184.15  1238.40  1315.74  1413.43  1432.32
                             1602.22  1607.01  1674.76  1714.81  1720.55
                             1745.28  1882.66  1920.95  1950.17  2048.97
                             2125.47  2212.66  2272.38  2338.29  2378.60
                             2478.80  4620.60  4640.68  4697.68  5446.00
                             5472.21  5517.97  5563.13

 Zero-point correction=                           0.137017 (Hartree/Particle)
 Thermal correction to Energy=                    0.146954
 Thermal correction to Enthalpy=                  0.147898
 Thermal correction to Gibbs Free Energy=         0.101476
 Sum of electronic and zero-point Energies=           -571.250720
 Sum of electronic and thermal Energies=              -571.240783
 Sum of electronic and thermal Enthalpies=            -571.239838
 Sum of electronic and thermal Free Energies=         -571.286261

                     E (Thermal)             CV                S
                      KCal/Mol        Cal/Mol-Kelvin    Cal/Mol-Kelvin
 Total                   92.215             38.228             97.704
 Electronic               0.000              0.000              0.000
 Translational            0.889              2.981             41.025
 Rotational               0.889              2.981             30.176
 Vibrational             90.438             32.266             26.503
 Vibration     1          0.594              1.982              5.513
 Vibration     2          0.607              1.938              3.204
 Vibration     3          0.622              1.890              2.536
 Vibration     4          0.646              1.815              1.982
 Vibration     5          0.682              1.705              1.515
 Vibration     6          0.699              1.654              1.361
 Vibration     7          0.725              1.582              1.182
 Vibration     8          0.739              1.543              1.098
 Vibration     9          0.764              1.474              0.970
 Vibration    10          0.780              1.434              0.903
 Vibration    11          0.794              1.397              0.847
 Vibration    12          0.801              1.379              0.821
 Vibration    13          0.840              1.286              0.700
 Vibration    14          0.876              1.203              0.607
 Vibration    15          0.914              1.121              0.526
 Vibration    16          0.927              1.094              0.502

 Optimization completed.
    -- Stationary point found.
 Normal termination of Gaussian 09 at Tue Dec 17 13:52:03 2024.
