 Gaussian 09, Revision E.01,
 Gaussian 09:  ES64L-G09RevE.01 30-Nov-2015

 --------------------------------------------------------
 # opt freq cam-b3lyp/6-31+g(d,p) empiricaldispersion=gd3
 --------------------------------------------------------

 ----------
 [No Title]
 ----------
 Symbolic Z-matrix:
 Charge =  0 Multiplicity = 1

 SCF Done:  E(RCAM-B3LYP) =  -571.058145052     A.U. after   15 cycles
 SCF Done:  E(RCAM-B3LYP) =  -571.058589787     A.U. after   12 cycles
 SCF Done:  E(RCAM-B3LYP) =  -571.058605867     A.U. after   10 cycles
 SCF Done:  E(RCAM-B3LYP) =  -571.058606409     A.U. after   10 cycles
 SCF Done:  E(RCAM-B3LYP) =  -571.058605588     A.U. after   11 cycles
 SCF Done:  E(RCAM-B3LYP) =  -571.058607227     A.U. after   10 cycles
 Optimization completed.
    -- Stationary point found.
 Normal termination of Gaussian 09 at Tue Dec 17 10:44:12 2024.

 ----------------------------------------------------------------------
 #N Geom=AllCheck Guess=TCheck SCRF=Check GenChk RCAM-B3LYP/6-31+G(d,p)
  Freq
 ----------------------------------------------------------------------

 Structure from the checkpoint file:  "canb3lypD3DHB.chk"
 ----------
 [No Title]
 ----------
 Charge =  0 Multiplicity = 1

                         Standard orientation:
 ---------------------------------------------------------------------
 Center     Atomic      Atomic             Coordinates (Angstroms)
 Number     Number       Type             X           Y           Z
 ---------------------------------------------------------------------
      1          6           0        0.231976    1.268458    0.000002
      2          6           0        0.463376   -0.118835   -0.000012
      3          6           0       -0.628214   -0.993160   -0.000001
      4          6           0       -1.929728   -0.518467    0.000013
      5          6           0       -2.156749    0.854419    0.000021
      6          6           0       -1.082806    1.733344    0.000020
      7          8           0       -2.939020   -1.442932    0.000008
      8          6           0        1.841956   -0.671486   -0.000046
      9          8           0        1.852582   -2.028849    0.000113
     10          8           0        2.871280   -0.038859   -0.000156
     11          8           0        1.279838    2.129343    0.000005
     12          1           0       -0.460581   -2.062147   -0.000006
     13          1           0       -3.171119    1.244434    0.000029
     14          1           0       -1.266940    2.804249    0.000031
     15          1           0       -3.798401   -1.006807    0.000096
     16          1           0        2.785513   -2.292527    0.000081
     17          1           0        0.955223    3.037537    0.000031
 ---------------------------------------------------------------------

 SCF Done:  E(RCAM-B3LYP) =  -571.058607227     A.U. after    1 cycles

 The electronic state is 1-A.
 Alpha  occ. eigenvalues --  -19.27633 -19.26994 -19.26900 -19.21815 -10.40582
 Alpha  occ. eigenvalues --  -10.34878 -10.33906 -10.29459 -10.29405 -10.28895
 Alpha  occ. eigenvalues --  -10.28235  -1.19638  -1.16134  -1.15692  -1.09990
 Alpha  occ. eigenvalues --   -0.95960  -0.87109  -0.83694  -0.75735  -0.72469
 Alpha  occ. eigenvalues --   -0.68944  -0.63891  -0.62805  -0.58272  -0.56453
 Alpha  occ. eigenvalues --   -0.55459  -0.53429  -0.52489  -0.50432  -0.50002
 Alpha  occ. eigenvalues --   -0.48864  -0.47735  -0.46732  -0.44441  -0.43253
 Alpha  occ. eigenvalues --   -0.39417  -0.39030  -0.34344  -0.33396  -0.27757
 Alpha virt. eigenvalues --   -0.01611   0.01648   0.02369   0.03716   0.03752
 Alpha virt. eigenvalues --    0.04864   0.07157   0.07608   0.07741   0.08996
 Alpha virt. eigenvalues --    0.09380   0.10404   0.10412   0.11905   0.12158

 Mulliken charges:
               1
     1  C   -0.846885
     2  C    0.548836
     3  C   -0.151728
     4  C   -0.152859
     5  C    0.116907
     6  C    0.077904
     7  O   -0.556073
     8  C    0.877179
     9  O   -0.499251
    10  O   -0.462507
    11  O   -0.500582
    12  H    0.177434
    13  H    0.123815
    14  H    0.120366
    15  H    0.362130
    16  H    0.393542
    17  H    0.371770
 Sum of Mulliken charges =  -0.00000

 Dipole moment (field-independent basis, Debye):
    X=             -3.7666    Y=              1.7974    Z=              0.0003  Tot=              4.1735
 Quadrupole moment (field-independent basis, Debye-Ang):
   XX=            -58.8003   YY=            -53.6935   ZZ=            -65.6728
   XY=            -10.5132   XZ=              0.0001   YZ=              0.0004

  Exact polarizability: 125.174  -0.248 108.626  -0.001  -0.000  51.294
 Approx polarizability: 145.725   5.924 135.624  -0.002  -0.001  64.358

                      1                      2                      3
                      A                      A                      A
 Frequencies --     20.5009               123.2128               172.2257
 Red. masses --     11.5775                 5.4726                 5.1187
 Frc consts  --      0.0029                 0.0490                 0.0895
 IR Inten    --      2.3144                 3.2148                 5.3473

                      4                      5                      6
                      A                      A                      A
 Frequencies --    205.2859               248.0357               330.1840
 Red. masses --      7.6341                 1.0989                 6.8247
 Frc consts  --      0.1896                 0.0398                 0.4384
 IR Inten    --      3.3290               113.6322                 0.7572

                      7                      8                      9
                      A                      A                      A
 Frequencies --    340.7671               377.5801               401.4836
 Red. masses --      1.1245                 5.9549                 8.0421
 Frc consts  --      0.0769                 0.5002                 0.7638
 IR Inten    --    105.9624                 2.2462                 3.2149

                     10                     11                     12
                      A                      A                      A
 Frequencies --    408.5502               442.8619               489.0631
 Red. masses --      7.0257                 3.0102                 8.0172
 Frc consts  --      0.6909                 0.3478                 1.1298
 IR Inten    --      1.5386                 5.8442                 1.1285

                     13                     14                     15
                      A                      A                      A
 Frequencies --    554.3155               555.5609               599.5538
 Red. masses --      3.9852                 2.1179                 1.4509
 Frc consts  --      0.7215                 0.3851                 0.3073
 IR Inten    --     36.9205                 0.0116               121.6206

                     16                     17                     18
                      A                      A                      A
 Frequencies --    672.3095               698.8029               742.4462
 Red. masses --      4.9061                 4.0458                 5.3707
 Frc consts  --      1.3066                 1.1640                 1.7443
 IR Inten    --     47.7761                19.6964                24.8284

                     19                     20                     21
                      A                      A                      A
 Frequencies --    809.1090               813.7922               840.1134
 Red. masses --      2.9187                 5.8995                 2.2676
 Frc consts  --      1.1258                 2.3019                 0.9430
 IR Inten    --      0.8920                54.9398                64.0834

                     22                     23                     24
                      A                      A                      A
 Frequencies --    931.3124               957.8260               972.4051
 Red. masses --      1.4345                 1.3713                 5.3222
 Frc consts  --      0.7330                 0.7412                 2.9651
 IR Inten    --      7.0375                 4.3241                12.6874

                     25                     26                     27
                      A                      A                      A
 Frequencies --   1088.1030              1168.7621              1185.4477
 Red. masses --      3.2646                 1.8084                 1.2975
 Frc consts  --      2.2773                 1.4554                 1.0743
 IR Inten    --     90.1872                67.3083               188.0483

                     28                     29                     30
                      A                      A                      A
 Frequencies --   1198.6158              1205.9203              1292.0118
 Red. masses --      1.4811                 1.1640                 1.9799
 Frc consts  --      1.2537                 0.9973                 1.9473
 IR Inten    --    167.4175               176.5297                32.8003

                     31                     32                     33
                      A                      A                      A
 Frequencies --   1329.2748              1343.0610              1362.0890
 Red. masses --     10.6562                 1.5159                 2.8910
 Frc consts  --     11.0939                 1.6110                 3.1602
 IR Inten    --      6.0001               222.9308                92.5765

                     34                     35                     36
                      A                      A                      A
 Frequencies --   1394.1366              1509.0656              1568.2561
 Red. masses --      4.1400                 3.6338                 3.2483
 Frc consts  --      4.7409                 4.8755                 4.7069
 IR Inten    --     69.5611                29.0652               205.5495

                     37                     38                     39
                      A                      A                      A
 Frequencies --   1681.7206              1715.3729              1847.2171
 Red. masses --      6.9369                 6.7340                10.3049
 Frc consts  --     11.5591                11.6746                20.7172
 IR Inten    --     60.1973                 6.0475               417.2710

                     40                     41                     42
                      A                      A                      A
 Frequencies --   3191.9709              3208.1863              3265.5462
 Red. masses --      1.0884                 1.0961                 1.0921
 Frc consts  --      6.5337                 6.6468                 6.8616
 IR Inten    --     13.9109                 6.8711                 3.7586

                     43                     44                     45
                      A                      A                      A
 Frequencies --   3814.0038              3866.9071              3881.9546
 Red. masses --      1.0647                 1.0663                 1.0665
 Frc consts  --      9.1255                 9.3940                 9.4696
 IR Inten    --    114.7205                73.8908                77.0412

 - Thermochemistry -
 -------------------
 Temperature   298.150 Kelvin.  Pressure   1.00000 Atm.
 Atom     1 has atomic number  6 and mass  12.00000

 Molecular mass:   154.02661 amu.
 Principal axes and moments of inertia in atomic units:
                           1         2         3
     Eigenvalues --  1020.169291962.674732982.84402
           X            0.99972  -0.02349   0.00001
           Y            0.02349   0.99972   0.00001
           Z           -0.00001  -0.00001   1.00000
 This molecule is an asymmetric top.
 Rotational symmetry number  1.
 Warning -- assumption of classical behavior for rotation
           may cause significant error
 Rotational temperatures (Kelvin)      0.08490     0.04413     0.02904
 Rotational constants (GHZ):           1.76906     0.91953     0.60504
 Zero-point vibrational energy     327925.8 (Joules/Mol)
                                   78.37616 (Kcal/Mol)
 Warning -- explicit consideration of  15 degrees of freedom as
           vibrations may cause significant error
 Vibrational temperatures:     29.50   177.28   247.79   295.36   356.87
          (Kelvin)            475.06   490.29   543.25   577.64   587.81
                              637.18   703.65   797.54   799.33   862.62
                              967.30  1005.42  1068.21  1164.13  1170.86
                             1208.73  1339.95  1378.10  1399.07  1565.54
                             1681.59  1705.59  1724.54  1735.05  1858.91
                             1912.53  1932.36  1959.74  2005.85  2171.21
                             2256.37  2419.62  2468.04  2657.73  4592.53
                             4615.86  4698.39  5487.49  5563.61  5585.26

 Zero-point correction=                           0.124900 (Hartree/Particle)
 Thermal correction to Energy=                    0.134543
 Thermal correction to Enthalpy=                  0.135487
 Thermal correction to Gibbs Free Energy=         0.089074
 Sum of electronic and zero-point Energies=           -570.933707
 Sum of electronic and thermal Energies=              -570.924064
 Sum of electronic and thermal Enthalpies=            -570.923120
 Sum of electronic and thermal Free Energies=         -570.969533

                     E (Thermal)             CV                S
                      KCal/Mol        Cal/Mol-Kelvin    Cal/Mol-Kelvin
 Total                   84.427             36.555             97.684
 Electronic               0.000              0.000              0.000
 Translational            0.889              2.981             41.006
 Rotational               0.889              2.981             30.169
 Vibrational             82.649             30.594             26.509
 Vibration     1          0.593              1.986              6.585
 Vibration     2          0.610              1.930              3.049
 Vibration     3          0.626              1.877              2.411
 Vibration     4          0.640              1.832              2.085
 Vibration     5          0.662              1.766              1.745
 Vibration     6          0.713              1.615              1.259
 Vibration     7          0.720              1.594              1.209
 Vibration     8          0.748              1.518              1.049
 Vibration     9          0.767              1.467              0.957
 Vibration    10          0.773              1.452              0.932
 Vibration    11          0.802              1.377              0.818
 Vibration    12          0.845              1.274              0.686
 Vibration    13          0.910              1.130              0.535
 Vibration    14          0.911              1.128              0.533
 Vibration    15          0.958              1.033              0.450

 Optimization completed.
    -- Stationary point found.
 Normal termination of Gaussian 09 at Tue Dec 17 10:45:06 2024.
