 Gaussian 09, Revision E.01,
 Gaussian 09:  ES64L-G09RevE.01 30-Nov-2015

 -----------------------------------------------------
 # opt freq pbepbe/6-31+g(d,p) empiricaldispersion=gd3
 -----------------------------------------------------

 ----------
 [No Title]
 ----------
 Symbolic Z-matrix:
 Charge =  1 Multiplicity = 1

 SCF Done:  E(RPBE-PBE) =  -571.000729962     A.U. after   18 cycles
 SCF Done:  E(RPBE-PBE) =  -571.001708707     A.U. after   12 cycles
 SCF Done:  E(RPBE-PBE) =  -571.001732734     A.U. after   11 cycles
 SCF Done:  E(RPBE-PBE) =  -571.001734025     A.U. after   10 cycles
 SCF Done:  E(RPBE-PBE) =  -571.001734471     A.U. after    9 cycles
 Optimization completed.
    -- Stationary point found.
 Normal termination of Gaussian 09 at Tue Dec 17 13:53:18 2024.

 ----------------------------------------------------------------------
 #N Geom=AllCheck Guess=TCheck SCRF=Check GenChk RPBEPBE/6-31+G(d,p) Fr
 eq
 ----------------------------------------------------------------------

 Structure from the checkpoint file:  "pbeD3DHByanggd3.chk"
 ----------
 [No Title]
 ----------
 Charge =  1 Multiplicity = 1

                         Standard orientation:
 ---------------------------------------------------------------------
 Center     Atomic      Atomic             Coordinates (Angstroms)
 Number     Number       Type             X           Y           Z
 ---------------------------------------------------------------------
      1          6           0        0.218018    1.282160   -0.000004
      2          6           0        0.427970   -0.141415    0.000003
      3          6           0       -0.696001   -1.021466    0.000013
      4          6           0       -1.992940   -0.518658    0.000017
      5          6           0       -2.187321    0.888318    0.000010
      6          6           0       -1.104559    1.763877   -0.000001
      7          8           0       -3.012524   -1.415365    0.000030
      8          6           0        1.731909   -0.721264   -0.000010
      9          8           0        1.816566   -2.042866   -0.000093
     10          8           0        2.803459    0.045044    0.000062
     11          8           0        1.286513    2.105483   -0.000019
     12          1           0       -0.549091   -2.102586    0.000022
     13          1           0       -3.202991    1.298876    0.000015
     14          1           0       -1.282098    2.844098   -0.000007
     15          1           0       -3.879112   -0.966475    0.000030
     16          1           0        2.728730   -2.400474   -0.000010
     17          1           0        3.655886   -0.440106   -0.000029
     18          1           0        0.994116    3.038973   -0.000033
 ---------------------------------------------------------------------

 SCF Done:  E(RPBE-PBE) =  -571.001734471     A.U. after    1 cycles

 The electronic state is 1-A.
 Alpha  occ. eigenvalues --  -19.04409 -19.04381 -18.98531 -18.95507 -10.25408
 Alpha  occ. eigenvalues --  -10.15040 -10.12308 -10.10437 -10.08385 -10.07594
 Alpha  occ. eigenvalues --  -10.07334  -1.24986  -1.17725  -1.15150  -1.12098
 Alpha  occ. eigenvalues --   -0.95075  -0.89100  -0.83644  -0.80992  -0.77296
 Alpha  occ. eigenvalues --   -0.73279  -0.72340  -0.67351  -0.65718  -0.61825
 Alpha  occ. eigenvalues --   -0.61456  -0.60653  -0.57714  -0.54682  -0.53669
 Alpha  occ. eigenvalues --   -0.53582  -0.52457  -0.51423  -0.50892  -0.50086
 Alpha  occ. eigenvalues --   -0.47144  -0.45583  -0.43174  -0.40630  -0.34309
 Alpha virt. eigenvalues --   -0.28019  -0.20180  -0.18901  -0.16239  -0.14619
 Alpha virt. eigenvalues --   -0.13918  -0.12912  -0.11316  -0.10566  -0.08789
 Alpha virt. eigenvalues --   -0.07901  -0.06635  -0.05815  -0.05586  -0.05254

 Mulliken charges:
               1
     1  C   -0.864861
     2  C    0.421888
     3  C   -0.124672
     4  C   -0.349176
     5  C    0.244493
     6  C    0.204696
     7  O   -0.451242
     8  C    0.906954
     9  O   -0.349646
    10  O   -0.348735
    11  O   -0.432230
    12  H    0.196312
    13  H    0.173378
    14  H    0.169775
    15  H    0.376772
    16  H    0.398078
    17  H    0.415706
    18  H    0.412510
 Sum of Mulliken charges =   1.00000

 Dipole moment (field-independent basis, Debye):
    X=              3.6664    Y=              0.4233    Z=             -0.0000  Tot=              3.6908
 Quadrupole moment (field-independent basis, Debye-Ang):
   XX=            -13.5872   YY=            -40.1045   ZZ=            -63.8740
   XY=            -16.1398   XZ=             -0.0004   YZ=             -0.0004

  Exact polarizability: 146.622  -9.074 119.050  -0.000   0.000  48.097
 Approx polarizability: 318.580 -39.335 294.670  -0.001   0.001  78.209

 ******    1 imaginary frequencies (negative Signs) ******

                      1                      2                      3
                      A                      A                      A
 Frequencies --    -22.4008               102.8324               150.3737
 Red. masses --     11.5680                 5.0418                 4.6223
 Frc consts  --      0.0034                 0.0314                 0.0616
 IR Inten    --      0.2125                12.6807                 8.9717

                      4                      5                      6
                      A                      A                      A
 Frequencies --    206.5971               265.0254               331.0126
 Red. masses --      6.3114                 1.0830                 6.2771
 Frc consts  --      0.1587                 0.0448                 0.4052
 IR Inten    --      8.8926                 8.6580                 0.1154

                      7                      8                      9
                      A                      A                      A
 Frequencies --    335.5824               348.3768               382.1631
 Red. masses --      1.8808                 1.7831                 7.5468
 Frc consts  --      0.1248                 0.1275                 0.6494
 IR Inten    --     79.5561                50.1558                 0.4474

                     10                     11                     12
                      A                      A                      A
 Frequencies --    398.4068               414.8836               447.6860
 Red. masses --      5.9683                 2.1546                 1.1529
 Frc consts  --      0.5582                 0.2185                 0.1361
 IR Inten    --      0.7886                57.3301                44.0137

                     13                     14                     15
                      A                      A                      A
 Frequencies --    462.4358               477.8018               528.5230
 Red. masses --      7.7908                 1.3989                 2.5962
 Frc consts  --      0.9816                 0.1882                 0.4273
 IR Inten    --      2.1157               178.0837                79.6032

                     16                     17                     18
                      A                      A                      A
 Frequencies --    544.5463               632.9668               652.3226
 Red. masses --      4.0669                 4.2655                 5.2407
 Frc consts  --      0.7105                 1.0069                 1.3139
 IR Inten    --     20.6272                42.1110                 0.5458

                     19                     20                     21
                      A                      A                      A
 Frequencies --    710.6385               744.3708               788.3419
 Red. masses --      5.4713                 4.8366                 5.9026
 Frc consts  --      1.6279                 1.5789                 2.1613
 IR Inten    --     10.0485                 1.0093                39.0182

                     22                     23                     24
                      A                      A                      A
 Frequencies --    805.9775               846.6511               922.8359
 Red. masses --      1.6868                 1.5268                 1.3321
 Frc consts  --      0.6456                 0.6448                 0.6684
 IR Inten    --     42.5828                14.9146                 0.5295

                     25                     26                     27
                      A                      A                      A
 Frequencies --    939.3878              1058.2941              1092.8659
 Red. masses --      4.6106                 3.1504                 1.1269
 Frc consts  --      2.3971                 2.0789                 0.7930
 IR Inten    --     24.9519               155.7880               165.9269

                     28                     29                     30
                      A                      A                      A
 Frequencies --   1118.0949              1158.5395              1165.9272
 Red. masses --      1.7202                 1.3352                 1.1831
 Frc consts  --      1.2670                 1.0559                 0.9476
 IR Inten    --    119.3124               219.1344                20.6638

                     31                     32                     33
                      A                      A                      A
 Frequencies --   1173.9082              1260.5593              1298.2909
 Red. masses --      1.2902                 1.7898                 1.8282
 Frc consts  --      1.0476                 1.6756                 1.8156
 IR Inten    --    183.9078                 7.8355               226.6638

                     34                     35                     36
                      A                      A                      A
 Frequencies --   1309.2654              1408.1406              1413.9070
 Red. masses --      6.8482                 6.6862                 2.9765
 Frc consts  --      6.9164                 7.8113                 3.5059
 IR Inten    --     54.2405                74.6715                 8.2277

                     37                     38                     39
                      A                      A                      A
 Frequencies --   1461.2224              1508.7426              1563.3863
 Red. masses --      5.2787                 4.0707                 5.1610
 Frc consts  --      6.6407                 5.4595                 7.4322
 IR Inten    --     56.5328               471.9043                94.3358

                     40                     41                     42
                      A                      A                      A
 Frequencies --   1575.9540              1640.3467              3119.7988
 Red. masses --      5.0261                 6.3507                 1.0887
 Frc consts  --      7.3548                10.0679                 6.2432
 IR Inten    --    507.7194                44.4435                 2.9577

                     43                     44                     45
                      A                      A                      A
 Frequencies --   3132.9828              3175.8290              3645.9682
 Red. masses --      1.0957                 1.0915                 1.0677
 Frc consts  --      6.3365                 6.4863                 8.3625
 IR Inten    --      0.5376                 7.4123               139.0397

                     46                     47                     48
                      A                      A                      A
 Frequencies --   3665.3171              3676.8792              3710.6812
 Red. masses --      1.0666                 1.0665                 1.0668
 Frc consts  --      8.4430                 8.4949                 8.6546
 IR Inten    --    379.2951               131.0370               122.2482

 - Thermochemistry -
 -------------------
 Temperature   298.150 Kelvin.  Pressure   1.00000 Atm.
 Atom     1 has atomic number  6 and mass  12.00000

 Molecular mass:   155.03443 amu.
 Principal axes and moments of inertia in atomic units:
                           1         2         3
     Eigenvalues --  1031.372142014.317013045.68915
           X            0.99958  -0.02898   0.00001
           Y            0.02898   0.99958  -0.00001
           Z           -0.00001   0.00001   1.00000
 This molecule is an asymmetric top.
 Rotational symmetry number  1.
 Warning -- assumption of classical behavior for rotation
           may cause significant error
 Rotational temperatures (Kelvin)      0.08398     0.04300     0.02844
 Rotational constants (GHZ):           1.74984     0.89596     0.59256
    1 imaginary frequencies ignored.
 Zero-point vibrational energy     345569.1 (Joules/Mol)
                                   82.59300 (Kcal/Mol)
 Warning -- explicit consideration of  15 degrees of freedom as
           vibrations may cause significant error
 Vibrational temperatures:    147.95   216.35   297.25   381.31   476.25
          (Kelvin)            482.83   501.24   549.85   573.22   596.92
                              644.12   665.34   687.45   760.43   783.48
                              910.70   938.55  1022.45  1070.98  1134.25
                             1159.62  1218.14  1327.75  1351.57  1522.65
                             1572.39  1608.69  1666.88  1677.51  1688.99
                             1813.66  1867.95  1883.74  2026.00  2034.29
                             2102.37  2170.74  2249.36  2267.44  2360.09
                             4488.69  4507.66  4569.30  5245.73  5273.57
                             5290.20  5338.84

 Zero-point correction=                           0.131620 (Hartree/Particle)
 Thermal correction to Energy=                    0.141062
 Thermal correction to Enthalpy=                  0.142006
 Thermal correction to Gibbs Free Energy=         0.097496
 Sum of electronic and zero-point Energies=           -570.870114
 Sum of electronic and thermal Energies=              -570.860673
 Sum of electronic and thermal Enthalpies=            -570.859729
 Sum of electronic and thermal Free Energies=         -570.904238

                     E (Thermal)             CV                S
                      KCal/Mol        Cal/Mol-Kelvin    Cal/Mol-Kelvin
 Total                   88.518             37.719             93.678
 Electronic               0.000              0.000              0.000
 Translational            0.889              2.981             41.025
 Rotational               0.889              2.981             30.227
 Vibrational             86.740             31.757             22.426
 Vibration     1          0.605              1.947              3.400
 Vibration     2          0.618              1.902              2.668
 Vibration     3          0.641              1.830              2.074
 Vibration     4          0.671              1.737              1.628
 Vibration     5          0.713              1.614              1.255
 Vibration     6          0.717              1.604              1.233
 Vibration     7          0.726              1.579              1.174
 Vibration     8          0.752              1.508              1.031
 Vibration     9          0.765              1.474              0.969
 Vibration    10          0.778              1.438              0.910
 Vibration    11          0.807              1.366              0.803
 Vibration    12          0.820              1.333              0.759
 Vibration    13          0.834              1.299              0.716
 Vibration    14          0.883              1.187              0.591
 Vibration    15          0.900              1.152              0.556

 Optimization completed.
    -- Stationary point found.
 Normal termination of Gaussian 09 at Tue Dec 17 13:53:56 2024.
