 Gaussian 09, Revision E.01,
 Gaussian 09:  ES64L-G09RevE.01 30-Nov-2015

 -----------------------------------------------------
 # opt freq pbepbe/6-31+g(d,p) EmpiricalDispersion=GD3
 -----------------------------------------------------

 ----------
 [No Title]
 ----------
 Symbolic Z-matrix:
 Charge =  0 Multiplicity = 1

 SCF Done:  E(RPBE-PBE) =  -570.667527814     A.U. after   15 cycles
 SCF Done:  E(RPBE-PBE) =  -570.668514850     A.U. after   13 cycles
 SCF Done:  E(RPBE-PBE) =  -570.668538254     A.U. after   11 cycles
 SCF Done:  E(RPBE-PBE) =  -570.668540100     A.U. after   10 cycles
 SCF Done:  E(RPBE-PBE) =  -570.668539130     A.U. after   10 cycles
 SCF Done:  E(RPBE-PBE) =  -570.668540895     A.U. after   10 cycles
 Optimization completed.
    -- Stationary point found.
 Normal termination of Gaussian 09 at Tue Dec 17 13:41:46 2024.

 ----------------------------------------------------------------------
 #N Geom=AllCheck Guess=TCheck SCRF=Check GenChk RPBEPBE/6-31+G(d,p) Fr
 eq
 ----------------------------------------------------------------------

 Structure from the checkpoint file:  "pbeD3DHB.chk"
 ----------
 [No Title]
 ----------
 Charge =  0 Multiplicity = 1

                         Standard orientation:
 ---------------------------------------------------------------------
 Center     Atomic      Atomic             Coordinates (Angstroms)
 Number     Number       Type             X           Y           Z
 ---------------------------------------------------------------------
      1          6           0        0.237640    1.279095    0.000000
      2          6           0        0.471031   -0.124258   -0.000008
      3          6           0       -0.634055   -1.002500    0.000005
      4          6           0       -1.947370   -0.522183    0.000016
      5          6           0       -2.174114    0.865717    0.000020
      6          6           0       -1.089559    1.748744    0.000016
      7          8           0       -2.963760   -1.452778    0.000014
      8          6           0        1.852418   -0.676247   -0.000038
      9          8           0        1.859287   -2.054217    0.000099
     10          8           0        2.896430   -0.034844   -0.000147
     11          8           0        1.296046    2.143372   -0.000001
     12          1           0       -0.463374   -2.080191    0.000003
     13          1           0       -3.195640    1.262883    0.000027
     14          1           0       -1.274806    2.829066    0.000024
     15          1           0       -3.821837   -0.990950    0.000077
     16          1           0        2.808753   -2.297885    0.000058
     17          1           0        0.946933    3.054593    0.000022
 ---------------------------------------------------------------------

 SCF Done:  E(RPBE-PBE) =  -570.668540895     A.U. after    1 cycles

 The electronic state is 1-A.
 Alpha  occ. eigenvalues --  -18.82541 -18.82523 -18.82481 -18.76799 -10.02971
 Alpha  occ. eigenvalues --   -9.98507  -9.97726  -9.93570  -9.93377  -9.93019
 Alpha  occ. eigenvalues --   -9.92180  -1.01047  -0.98923  -0.98543  -0.92319
 Alpha  occ. eigenvalues --   -0.79189  -0.71230  -0.68324  -0.61224  -0.58379
 Alpha  occ. eigenvalues --   -0.55455  -0.50708  -0.50031  -0.45350  -0.43881
 Alpha  occ. eigenvalues --   -0.42177  -0.40368  -0.40297  -0.38692  -0.37504
 Alpha  occ. eigenvalues --   -0.36914  -0.35484  -0.34588  -0.32917  -0.32001
 Alpha  occ. eigenvalues --   -0.28152  -0.27601  -0.24811  -0.22716  -0.19552
 Alpha virt. eigenvalues --   -0.08783  -0.03793  -0.02893  -0.02463  -0.00686
 Alpha virt. eigenvalues --    0.00366   0.00645   0.02953   0.03800   0.04124
 Alpha virt. eigenvalues --    0.04974   0.06679   0.07025   0.07269   0.07760

 Mulliken charges:
               1
     1  C   -1.141226
     2  C    0.688579
     3  C   -0.174799
     4  C   -0.302273
     5  C    0.188291
     6  C    0.182651
     7  O   -0.484358
     8  C    0.778834
     9  O   -0.428376
    10  O   -0.413633
    11  O   -0.423463
    12  H    0.179743
    13  H    0.130317
    14  H    0.127652
    15  H    0.353412
    16  H    0.377328
    17  H    0.361321
 Sum of Mulliken charges =  -0.00000

 Dipole moment (field-independent basis, Debye):
    X=             -3.7398    Y=              1.8458    Z=              0.0003  Tot=              4.1705
 Quadrupole moment (field-independent basis, Debye-Ang):
   XX=            -58.2068   YY=            -53.4313   ZZ=            -65.9007
   XY=             -9.4802   XZ=              0.0002   YZ=              0.0004

  Exact polarizability: 138.717  -1.349 118.610  -0.002  -0.001  53.518
 Approx polarizability: 271.868  10.727 248.850  -0.004  -0.002  86.632

                      1                      2                      3
                      A                      A                      A
 Frequencies --     27.4067               113.3301               162.4085
 Red. masses --     11.7101                 5.4771                 5.2797
 Frc consts  --      0.0052                 0.0414                 0.0820
 IR Inten    --      1.9773                 2.5837                 4.9003

                      4                      5                      6
                      A                      A                      A
 Frequencies --    194.0662               289.9966               315.6438
 Red. masses --      7.7039                 1.1036                 6.8778
 Frc consts  --      0.1709                 0.0547                 0.4037
 IR Inten    --      2.9158               102.0573                 0.9619

                      7                      8                      9
                      A                      A                      A
 Frequencies --    350.3094               374.9042               385.1487
 Red. masses --      3.5078                 1.2871                 7.3076
 Frc consts  --      0.2536                 0.1066                 0.6387
 IR Inten    --     14.7839                76.8659                 2.8433

                     10                     11                     12
                      A                      A                      A
 Frequencies --    391.2997               418.0183               467.5949
 Red. masses --      7.6676                 3.1019                 8.0192
 Frc consts  --      0.6917                 0.3194                 1.0330
 IR Inten    --      1.1450                 2.6392                 0.7065

                     13                     14                     15
                      A                      A                      A
 Frequencies --    526.1123               528.1180               578.7269
 Red. masses --      2.4239                 4.0227                 1.3677
 Frc consts  --      0.3953                 0.6610                 0.2699
 IR Inten    --      4.5853                36.9684               101.8837

                     16                     17                     18
                      A                      A                      A
 Frequencies --    638.8448               653.2245               708.4180
 Red. masses --      4.8839                 3.9816                 5.6485
 Frc consts  --      1.1744                 1.0010                 1.6702
 IR Inten    --     41.0158                24.0258                15.9194

                     19                     20                     21
                      A                      A                      A
 Frequencies --    757.5622               780.1994               782.1300
 Red. masses --      2.3560                 5.9217                 2.8206
 Frc consts  --      0.7966                 2.1238                 1.0166
 IR Inten    --      0.9074                49.5799                52.2544

                     22                     23                     24
                      A                      A                      A
 Frequencies --    858.0298               884.7880               929.2287
 Red. masses --      1.3608                 1.3766                 5.4605
 Frc consts  --      0.5903                 0.6350                 2.7780
 IR Inten    --      5.7858                 5.0757                14.1658

                     25                     26                     27
                      A                      A                      A
 Frequencies --   1026.6682              1115.3969              1140.3171
 Red. masses --      3.8015                 1.8023                 1.4416
 Frc consts  --      2.3609                 1.3211                 1.1045
 IR Inten    --    133.8019                75.2718               268.4717

                     28                     29                     30
                      A                      A                      A
 Frequencies --   1159.9667              1165.8440              1241.1868
 Red. masses --      1.1936                 1.2429                 1.9805
 Frc consts  --      0.9463                 0.9953                 1.7976
 IR Inten    --     12.3140               150.4840                33.8910

                     31                     32                     33
                      A                      A                      A
 Frequencies --   1279.7351              1286.4538              1317.7456
 Red. masses --      6.0911                 1.4984                 2.9749
 Frc consts  --      5.8774                 1.4610                 3.0435
 IR Inten    --     15.2187               204.1429               129.0796

                     34                     35                     36
                      A                      A                      A
 Frequencies --   1384.5846              1444.6170              1494.3634
 Red. masses --      6.2887                 3.3921                 3.1972
 Frc consts  --      7.1031                 4.1709                 4.2067
 IR Inten    --      7.0110                27.1342               176.7268

                     37                     38                     39
                      A                      A                      A
 Frequencies --   1592.5622              1628.5554              1739.3651
 Red. masses --      6.5730                 6.7168                 9.7886
 Frc consts  --      9.8222                10.4958                17.4482
 IR Inten    --     68.3295                 4.5216               343.0847

                     40                     41                     42
                      A                      A                      A
 Frequencies --   3097.5414              3113.8381              3172.2053
 Red. masses --      1.0867                 1.0949                 1.0907
 Frc consts  --      6.1430                 6.2550                 6.4665
 IR Inten    --     17.4643                10.1445                 3.0359

                     43                     44                     45
                      A                      A                      A
 Frequencies --   3653.2760              3696.6949              3722.1488
 Red. masses --      1.0643                 1.0658                 1.0662
 Frc consts  --      8.3687                 8.5817                 8.7031
 IR Inten    --     72.3855                44.0305                53.2006

 - Thermochemistry -
 -------------------
 Temperature   298.150 Kelvin.  Pressure   1.00000 Atm.
 Atom     1 has atomic number  6 and mass  12.00000

 Molecular mass:   154.02661 amu.
 Principal axes and moments of inertia in atomic units:
                           1         2         3
     Eigenvalues --  1037.958111994.004213031.96232
           X            0.99971  -0.02407   0.00001
           Y            0.02407   0.99971   0.00001
           Z           -0.00001  -0.00001   1.00000
 This molecule is an asymmetric top.
 Rotational symmetry number  1.
 Warning -- assumption of classical behavior for rotation
           may cause significant error
 Rotational temperatures (Kelvin)      0.08345     0.04344     0.02857
 Rotational constants (GHZ):           1.73874     0.90508     0.59524
 Zero-point vibrational energy     314549.5 (Joules/Mol)
                                   75.17914 (Kcal/Mol)
 Warning -- explicit consideration of  15 degrees of freedom as
           vibrations may cause significant error
 Vibrational temperatures:     39.43   163.06   233.67   279.22   417.24
          (Kelvin)            454.14   504.02   539.40   554.14   562.99
                              601.43   672.76   756.96   759.84   832.66
                              919.15   939.84  1019.25  1089.96  1122.53
                             1125.31  1234.51  1273.01  1336.95  1477.14
                             1604.81  1640.66  1668.93  1677.39  1785.79
                             1841.25  1850.92  1895.94  1992.11  2078.48
                             2150.05  2291.34  2343.13  2502.56  4456.67
                             4480.11  4564.09  5256.24  5318.71  5355.34

 Zero-point correction=                           0.119806 (Hartree/Particle)
 Thermal correction to Energy=                    0.129720
 Thermal correction to Enthalpy=                  0.130664
 Thermal correction to Gibbs Free Energy=         0.084020
 Sum of electronic and zero-point Energies=           -570.548735
 Sum of electronic and thermal Energies=              -570.538821
 Sum of electronic and thermal Enthalpies=            -570.537877
 Sum of electronic and thermal Free Energies=         -570.584521

                     E (Thermal)             CV                S
                      KCal/Mol        Cal/Mol-Kelvin    Cal/Mol-Kelvin
 Total                   81.401             37.940             98.172
 Electronic               0.000              0.000              0.000
 Translational            0.889              2.981             41.006
 Rotational               0.889              2.981             30.218
 Vibrational             79.623             31.978             26.948
 Vibration     1          0.593              1.984              6.009
 Vibration     2          0.607              1.938              3.211
 Vibration     3          0.623              1.889              2.522
 Vibration     4          0.635              1.848              2.189
 Vibration     5          0.686              1.692              1.474
 Vibration     6          0.703              1.644              1.333
 Vibration     7          0.727              1.575              1.165
 Vibration     8          0.746              1.524              1.060
 Vibration     9          0.754              1.502              1.019
 Vibration    10          0.759              1.489              0.995
 Vibration    11          0.781              1.431              0.899
 Vibration    12          0.825              1.322              0.744
 Vibration    13          0.881              1.192              0.596
 Vibration    14          0.883              1.188              0.591
 Vibration    15          0.935              1.077              0.488

 Optimization completed.
    -- Stationary point found.
 Normal termination of Gaussian 09 at Tue Dec 17 13:42:27 2024.
