 Gaussian 09, Revision E.01,
 Gaussian 09:  ES64L-G09RevE.01 30-Nov-2015

 ------------------------
 # opt freq m062x/cc-pvtz
 ------------------------

 ----------
 [No Title]
 ----------
 Symbolic Z-matrix:
 Charge =  1 Multiplicity = 1

 SCF Done:  E(RM062X) =  -654.148723855     A.U. after   14 cycles
 SCF Done:  E(RM062X) =  -654.149756044     A.U. after   11 cycles
 SCF Done:  E(RM062X) =  -654.149828935     A.U. after    9 cycles
 SCF Done:  E(RM062X) =  -654.149814935     A.U. after   10 cycles
 SCF Done:  E(RM062X) =  -654.149833892     A.U. after   11 cycles
 SCF Done:  E(RM062X) =  -654.149854807     A.U. after   11 cycles
 SCF Done:  E(RM062X) =  -654.149883356     A.U. after   11 cycles
 SCF Done:  E(RM062X) =  -654.149877975     A.U. after    7 cycles
 SCF Done:  E(RM062X) =  -654.149882652     A.U. after    7 cycles
 Optimization completed.
    -- Stationary point found.
 Normal termination of Gaussian 09 at Fri Dec 20 00:07:01 2024.

 -------------------------------------------------------------------
 #N Geom=AllCheck Guess=TCheck SCRF=Check GenChk RM062X/CC-pVTZ Freq
 -------------------------------------------------------------------

 Structure from the checkpoint file:  "2pvTZDMANyang.chk"
 ----------
 [No Title]
 ----------
 Charge =  1 Multiplicity = 1

                         Standard orientation:
 ---------------------------------------------------------------------
 Center     Atomic      Atomic             Coordinates (Angstroms)
 Number     Number       Type             X           Y           Z
 ---------------------------------------------------------------------
      1          6           0        0.811027   -2.405148    0.000130
      2          6           0        2.215651   -2.328303    0.000103
      3          6           0        2.823246   -1.107241    0.000029
      4          6           0        2.068509    0.089323   -0.000029
      5          6           0        0.645309    0.032146   -0.000011
      6          6           0        0.062676   -1.265460    0.000078
      7          6           0        2.719323    1.344194   -0.000103
      8          6           0        2.001330    2.503209   -0.000159
      9          6           0        0.595064    2.455286   -0.000145
     10          6           0       -0.074988    1.263790   -0.000077
     11          7           0       -1.405704   -1.368497    0.000107
     12          7           0       -1.528847    1.237989   -0.000069
     13          6           0       -1.939574   -2.003076   -1.231623
     14          6           0       -1.939539   -2.002963    1.231911
     15          6           0       -2.097834    1.845693    1.213516
     16          6           0       -2.097844    1.845594   -1.213698
     17          1           0        0.330015   -3.374997    0.000192
     18          1           0        2.799665   -3.236954    0.000143
     19          1           0        3.902554   -1.032819    0.000011
     20          1           0        3.800818    1.364671   -0.000113
     21          1           0        2.502434    3.460583   -0.000218
     22          1           0        0.034403    3.381199   -0.000191
     23          1           0       -1.699396   -0.307876    0.000057
     24          1           0       -3.024666   -1.929171   -1.219365
     25          1           0       -1.535274   -1.481716   -2.095257
     26          1           0       -1.642166   -3.048541   -1.264252
     27          1           0       -3.024631   -1.929065    1.219674
     28          1           0       -1.535219   -1.481521    2.095486
     29          1           0       -1.642125   -3.048424    1.264629
     30          1           0       -1.659513    1.380943    2.094826
     31          1           0       -1.904482    2.920671    1.254596
     32          1           0       -3.175329    1.686536    1.218673
     33          1           0       -1.659511    1.380789   -2.094975
     34          1           0       -3.175336    1.686416   -1.218848
     35          1           0       -1.904513    2.920573   -1.254859
 ---------------------------------------------------------------------

 SCF Done:  E(RM062X) =  -654.149882652     A.U. after    1 cycles

 The electronic state is 1-A.
 Alpha  occ. eigenvalues --  -14.98322 -14.91263 -10.73262 -10.72747 -10.72746
 Alpha  occ. eigenvalues --  -10.71646 -10.70075 -10.69533 -10.69532 -10.68888
 Alpha  occ. eigenvalues --  -10.68746 -10.67599 -10.67480 -10.67385 -10.66928
 Alpha  occ. eigenvalues --  -10.66834  -1.25840  -1.19509  -1.11657  -1.06140
 Alpha  occ. eigenvalues --   -1.01209  -0.98165  -0.98067  -0.95881  -0.94378
 Alpha  occ. eigenvalues --   -0.91751  -0.87986  -0.85248  -0.83094  -0.80112
 Alpha  occ. eigenvalues --   -0.76123  -0.74187  -0.73310  -0.70908  -0.70664
 Alpha  occ. eigenvalues --   -0.69513  -0.66873  -0.66793  -0.66305  -0.64036
 Alpha  occ. eigenvalues --   -0.63534  -0.63103  -0.61751  -0.61400  -0.60732
 Alpha  occ. eigenvalues --   -0.60319  -0.59410  -0.59000  -0.58452  -0.57138
 Alpha  occ. eigenvalues --   -0.56829  -0.53919  -0.53211  -0.52951  -0.48055
 Alpha  occ. eigenvalues --   -0.44866  -0.43465  -0.40210
 Alpha virt. eigenvalues --   -0.15291  -0.12379  -0.08451  -0.07964  -0.04755
 Alpha virt. eigenvalues --   -0.04010  -0.03868  -0.03603  -0.01652  -0.01337
 Alpha virt. eigenvalues --   -0.00850  -0.00454   0.00297   0.00653   0.01470

 Mulliken charges:
               1
     1  C   -0.235081
     2  C   -0.113510
     3  C   -0.113809
     4  C    0.194423
     5  C    0.227134
     6  C    0.024571
     7  C   -0.126517
     8  C   -0.103560
     9  C   -0.205811
    10  C   -0.021295
    11  N   -0.091818
    12  N   -0.202631
    13  C   -0.307791
    14  C   -0.307791
    15  C   -0.316413
    16  C   -0.316412
    17  H    0.123446
    18  H    0.130255
    19  H    0.126471
    20  H    0.124509
    21  H    0.127988
    22  H    0.127293
    23  H    0.224850
    24  H    0.168353
    25  H    0.184080
    26  H    0.181884
    27  H    0.168353
    28  H    0.184080
    29  H    0.181883
    30  H    0.163544
    31  H    0.161857
    32  H    0.156032
    33  H    0.163546
    34  H    0.156030
    35  H    0.161856
 Sum of Mulliken charges =   1.00000

 Dipole moment (field-independent basis, Debye):
    X=             -3.8943    Y=             -1.9320    Z=              0.0002  Tot=              4.3472
 Quadrupole moment (field-independent basis, Debye-Ang):
   XX=            -63.3372   YY=            -63.8841   ZZ=            -91.7073
   XY=              3.4812   XZ=             -0.0006   YZ=             -0.0018

  Exact polarizability: 192.739  -1.126 206.437  -0.001  -0.006 107.063
 Approx polarizability: 240.057  -1.630 278.456  -0.001  -0.008 145.094

                      1                      2                      3
                      A                      A                      A
 Frequencies --     17.6481                74.1458               121.8438
 Red. masses --      3.4598                 2.7712                 2.3297
 Frc consts  --      0.0006                 0.0090                 0.0204
 IR Inten    --      0.0795                 0.2730                 0.5945

                      4                      5                      6
                      A                      A                      A
 Frequencies --    131.5234               161.1889               176.6598
 Red. masses --      3.3317                 2.6781                 2.6403
 Frc consts  --      0.0340                 0.0410                 0.0485
 IR Inten    --      0.3029                13.2614                 3.0035

                      7                      8                      9
                      A                      A                      A
 Frequencies --    191.1656               216.6102               225.7956
 Red. masses --      3.0983                 1.3216                 1.3524
 Frc consts  --      0.0667                 0.0365                 0.0406
 IR Inten    --      0.7712                 0.4497                 1.3547

                     10                     11                     12
                      A                      A                      A
 Frequencies --    240.4822               253.5849               263.9302
 Red. masses --      1.0647                 1.6640                 1.8434
 Frc consts  --      0.0363                 0.0630                 0.0757
 IR Inten    --      0.0092                 5.0268                 0.4581

                     13                     14                     15
                      A                      A                      A
 Frequencies --    281.6652               324.8717               325.4827
 Red. masses --      1.7635                 3.2924                 2.6159
 Frc consts  --      0.0824                 0.2047                 0.1633
 IR Inten    --      0.2644                 0.1693                 1.4644

                     16                     17                     18
                      A                      A                      A
 Frequencies --    386.2118               432.7726               447.0997
 Red. masses --      3.6466                 3.1711                 2.8784
 Frc consts  --      0.3205                 0.3499                 0.3390
 IR Inten    --     12.3043                20.8217                 0.3992

                     19                     20                     21
                      A                      A                      A
 Frequencies --    479.4929               503.1732               534.8859
 Red. masses --      3.3051                 5.4654                 4.9419
 Frc consts  --      0.4477                 0.8153                 0.8330
 IR Inten    --      0.4905                14.2436                 6.9056

                     22                     23                     24
                      A                      A                      A
 Frequencies --    538.7148               546.2757               574.2430
 Red. masses --      4.2050                 3.5370                 3.8388
 Frc consts  --      0.7190                 0.6219                 0.7458
 IR Inten    --      8.9724                 0.0064                 4.3274

                     25                     26                     27
                      A                      A                      A
 Frequencies --    654.8354               683.6809               685.5787
 Red. masses --      4.0025                 2.9481                 3.5798
 Frc consts  --      1.0112                 0.8119                 0.9913
 IR Inten    --      0.2061                 0.2368                49.5739

                     28                     29                     30
                      A                      A                      A
 Frequencies --    782.1399               796.8080               800.0285
 Red. masses --      4.7218                 5.3150                 1.7537
 Frc consts  --      1.7019                 1.9882                 0.6613
 IR Inten    --      0.8525                 0.6541                56.3716

                     31                     32                     33
                      A                      A                      A
 Frequencies --    806.2139               874.0121               905.3203
 Red. masses --      1.3805                 2.5696                 3.9602
 Frc consts  --      0.5287                 1.1565                 1.9124
 IR Inten    --      9.7122                22.3416                31.7178

                     34                     35                     36
                      A                      A                      A
 Frequencies --    937.9283               949.0335               973.0080
 Red. masses --      3.6435                 1.4055                 1.4381
 Frc consts  --      1.8884                 0.7458                 0.8022
 IR Inten    --     31.5027                 1.1215                 1.4021

                     37                     38                     39
                      A                      A                      A
 Frequencies --   1029.5167              1031.2706              1039.8953
 Red. masses --      1.3577                 3.2102                 1.5565
 Frc consts  --      0.8479                 2.0115                 0.9917
 IR Inten    --      0.3481                25.9382                 3.9542

                     40                     41                     42
                      A                      A                      A
 Frequencies --   1042.3232              1053.8468              1059.5204
 Red. masses --      1.5749                 3.5263                 1.6415
 Frc consts  --      1.0081                 2.3074                 1.0857
 IR Inten    --      8.8803                20.1472                15.8188

                     43                     44                     45
                      A                      A                      A
 Frequencies --   1093.0303              1115.8747              1115.9660
 Red. masses --      1.2038                 2.0601                 1.2452
 Frc consts  --      0.8474                 1.5113                 0.9137
 IR Inten    --      0.5474                 2.6058                 1.5840

                     46                     47                     48
                      A                      A                      A
 Frequencies --   1119.8516              1182.1943              1193.3278
 Red. masses --      1.8417                 1.3157                 1.4065
 Frc consts  --      1.3608                 1.0834                 1.1801
 IR Inten    --      3.1658                 0.1405                 3.4368

                     49                     50                     51
                      A                      A                      A
 Frequencies --   1200.2212              1203.8484              1213.6105
 Red. masses --      2.3997                 1.5971                 1.2894
 Frc consts  --      2.0367                 1.3638                 1.1190
 IR Inten    --      7.8516                 1.0455                 7.1947

                     52                     53                     54
                      A                      A                      A
 Frequencies --   1223.9215              1235.0752              1246.5961
 Red. masses --      3.2453                 1.5891                 1.7801
 Frc consts  --      2.8642                 1.4282                 1.6299
 IR Inten    --     14.4061                25.4528                13.0159

                     55                     56                     57
                      A                      A                      A
 Frequencies --   1250.0856              1287.7883              1316.0347
 Red. masses --      1.8628                 2.1598                 2.4657
 Frc consts  --      1.7152                 2.1103                 2.5161
 IR Inten    --     33.3187                 1.1365                18.8908

                     58                     59                     60
                      A                      A                      A
 Frequencies --   1385.9597              1390.8957              1412.6329
 Red. masses --      3.5064                 2.5233                 4.4041
 Frc consts  --      3.9684                 2.8761                 5.1780
 IR Inten    --      9.2745                73.4971                16.1120

                     61                     62                     63
                      A                      A                      A
 Frequencies --   1442.9020              1447.2104              1451.2177
 Red. masses --      1.1471                 1.1454                 1.3435
 Frc consts  --      1.4071                 1.4135                 1.6671
 IR Inten    --      0.0905                 5.6066                49.2948

                     64                     65                     66
                      A                      A                      A
 Frequencies --   1475.6422              1482.3588              1482.5206
 Red. masses --      1.4064                 1.4451                 1.0438
 Frc consts  --      1.8043                 1.8710                 1.3516
 IR Inten    --      0.6037                 1.8543                 0.0973

                     67                     68                     69
                      A                      A                      A
 Frequencies --   1491.7478              1496.2006              1498.0966
 Red. masses --      1.0479                 1.0432                 1.1319
 Frc consts  --      1.3740                 1.3759                 1.4967
 IR Inten    --      2.9051                 4.0295                 6.8000

                     70                     71                     72
                      A                      A                      A
 Frequencies --   1505.4244              1509.2025              1511.8299
 Red. masses --      1.0432                 1.0800                 1.2529
 Frc consts  --      1.3929                 1.4493                 1.6872
 IR Inten    --      9.7668                 8.4073                 4.6685

                     73                     74                     75
                      A                      A                      A
 Frequencies --   1517.2285              1524.6357              1554.1425
 Red. masses --      1.5514                 1.1466                 2.7255
 Frc consts  --      2.1042                 1.5704                 3.8786
 IR Inten    --      8.0940                24.9218               146.3654

                     76                     77                     78
                      A                      A                      A
 Frequencies --   1601.1912              1637.1975              1654.9465
 Red. masses --      1.6841                 1.0967                 6.7308
 Frc consts  --      2.5439                 1.7320                10.8614
 IR Inten    --    217.9944                 5.1170                 5.2687

                     79                     80                     81
                      A                      A                      A
 Frequencies --   1692.9425              1711.0256              2178.7193
 Red. masses --      4.8072                 5.8204                 1.1202
 Frc consts  --      8.1175                10.0395                 3.1329
 IR Inten    --     23.1732                51.4477              1297.0555

                     82                     83                     84
                      A                      A                      A
 Frequencies --   3040.3033              3041.9264              3080.9396
 Red. masses --      1.0354                 1.0369                 1.0310
 Frc consts  --      5.6390                 5.6528                 5.7662
 IR Inten    --     13.2355                12.3496                 2.0364

                     85                     86                     87
                      A                      A                      A
 Frequencies --   3083.3984              3116.0286              3116.5177
 Red. masses --      1.0320                 1.0993                 1.1009
 Frc consts  --      5.7809                 6.2890                 6.2999
 IR Inten    --      2.5249                14.1647                 1.2183

                     88                     89                     90
                      A                      A                      A
 Frequencies --   3145.8771              3147.6066              3172.9723
 Red. masses --      1.1056                 1.1061                 1.1075
 Frc consts  --      6.4468                 6.4565                 6.5693
 IR Inten    --      2.2977                12.5829                 0.0246

                     91                     92                     93
                      A                      A                      A
 Frequencies --   3174.9005              3177.6463              3180.4382
 Red. masses --      1.1075                 1.0983                 1.1068
 Frc consts  --      6.5773                 6.5341                 6.5960
 IR Inten    --      4.3958                 1.7544                 0.0578

                     94                     95                     96
                      A                      A                      A
 Frequencies --   3184.0501              3191.0421              3198.4648
 Red. masses --      1.0999                 1.0880                 1.0920
 Frc consts  --      6.5697                 6.5272                 6.5817
 IR Inten    --      0.8103                 0.9426                 1.5253

                     97                     98                     99
                      A                      A                      A
 Frequencies --   3202.0486              3210.8955              3233.2617
 Red. masses --      1.0912                 1.0985                 1.0963
 Frc consts  --      6.5922                 6.6726                 6.7525
 IR Inten    --      0.2555                 0.0029                 0.1822

 - Thermochemistry -
 -------------------
 Temperature   298.150 Kelvin.  Pressure   1.00000 Atm.
 Atom     1 has atomic number  6 and mass  12.00000

 Molecular mass:   215.15482 amu.
 Principal axes and moments of inertia in atomic units:
                           1         2         3
     Eigenvalues --  2823.163962950.201855045.97064
           X            0.99999   0.00384   0.00001
           Y           -0.00384   0.99999   0.00006
           Z           -0.00001  -0.00006   1.00000
 This molecule is an asymmetric top.
 Rotational symmetry number  1.
 Warning -- assumption of classical behavior for rotation
           may cause significant error
 Rotational temperatures (Kelvin)      0.03068     0.02936     0.01716
 Rotational constants (GHZ):           0.63926     0.61173     0.35766
 Zero-point vibrational energy     809309.9 (Joules/Mol)
                                  193.42970 (Kcal/Mol)
 Warning -- explicit consideration of  24 degrees of freedom as
           vibrations may cause significant error
 Vibrational temperatures:     25.39   106.68   175.31   189.23   231.91
          (Kelvin)            254.17   275.04   311.65   324.87   346.00
                              364.85   379.74   405.25   467.42   468.30
                              555.67   622.66   643.28   689.88   723.95
                              769.58   775.09   785.97   826.21   942.16
                              983.66   986.39  1125.32  1146.43  1151.06
                             1159.96  1257.51  1302.55  1349.47  1365.45
                             1399.94  1481.24  1483.77  1496.18  1499.67
                             1516.25  1524.41  1572.62  1605.49  1605.62
                             1611.21  1700.91  1716.93  1726.85  1732.07
                             1746.11  1760.95  1777.00  1793.57  1798.59
                             1852.84  1893.48  1994.08  2001.19  2032.46
                             2076.01  2082.21  2087.98  2123.12  2132.78
                             2133.01  2146.29  2152.70  2155.42  2165.97
                             2171.40  2175.18  2182.95  2193.61  2236.06
                             2303.75  2355.56  2381.10  2435.76  2461.78
                             3134.69  4374.31  4376.65  4432.78  4436.32
                             4483.26  4483.97  4526.21  4528.70  4565.19
                             4567.97  4571.92  4575.94  4581.13  4591.19
                             4601.87  4607.03  4619.76  4651.94

 Zero-point correction=                           0.308250 (Hartree/Particle)
 Thermal correction to Energy=                    0.323252
 Thermal correction to Enthalpy=                  0.324196
 Thermal correction to Gibbs Free Energy=         0.266531
 Sum of electronic and zero-point Energies=           -653.841633
 Sum of electronic and thermal Energies=              -653.826630
 Sum of electronic and thermal Enthalpies=            -653.825686
 Sum of electronic and thermal Free Energies=         -653.883352

                     E (Thermal)             CV                S
                      KCal/Mol        Cal/Mol-Kelvin    Cal/Mol-Kelvin
 Total                  202.844             59.023            121.368
 Electronic               0.000              0.000              0.000
 Translational            0.889              2.981             42.002
 Rotational               0.889              2.981             32.108
 Vibrational            201.066             53.061             47.258
 Vibration     1          0.593              1.986              6.883
 Vibration     2          0.599              1.966              4.040
 Vibration     3          0.609              1.931              3.071
 Vibration     4          0.612              1.922              2.924
 Vibration     5          0.622              1.890              2.536
 Vibration     6          0.628              1.871              2.363
 Vibration     7          0.634              1.852              2.217
 Vibration     8          0.645              1.816              1.987
 Vibration     9          0.650              1.802              1.912
 Vibration    10          0.658              1.778              1.799
 Vibration    11          0.665              1.757              1.706
 Vibration    12          0.670              1.739              1.636
 Vibration    13          0.681              1.708              1.524
 Vibration    14          0.709              1.626              1.285
 Vibration    15          0.710              1.625              1.282
 Vibration    16          0.755              1.500              1.015
 Vibration    17          0.794              1.399              0.850
 Vibration    18          0.806              1.367              0.805
 Vibration    19          0.836              1.296              0.711
 Vibration    20          0.858              1.243              0.650
 Vibration    21          0.890              1.173              0.576
 Vibration    22          0.894              1.164              0.568
 Vibration    23          0.901              1.148              0.552
 Vibration    24          0.931              1.087              0.496

 Optimization completed.
    -- Stationary point found.
 Normal termination of Gaussian 09 at Fri Dec 20 00:51:04 2024.
