 Gaussian 09, Revision E.01,
 Gaussian 09:  ES64L-G09RevE.01 30-Nov-2015

 ------------------------
 # opt freq m062x/cc-pvtz
 ------------------------

 ----------
 [No Title]
 ----------
 Symbolic Z-matrix:
 Charge =  0 Multiplicity = 1

 SCF Done:  E(RM062X) =  -653.752581229     A.U. after   15 cycles
 SCF Done:  E(RM062X) =  -653.751172453     A.U. after   12 cycles
 SCF Done:  E(RM062X) =  -653.753274443     A.U. after   11 cycles
 SCF Done:  E(RM062X) =  -653.751636847     A.U. after   13 cycles
 SCF Done:  E(RM062X) =  -653.753781332     A.U. after   11 cycles
 SCF Done:  E(RM062X) =  -653.753824362     A.U. after   11 cycles
 SCF Done:  E(RM062X) =  -653.753842025     A.U. after   11 cycles
 SCF Done:  E(RM062X) =  -653.753846603     A.U. after    8 cycles
 SCF Done:  E(RM062X) =  -653.753847763     A.U. after    7 cycles
 SCF Done:  E(RM062X) =  -653.753847498     A.U. after    8 cycles
 SCF Done:  E(RM062X) =  -653.753848569     A.U. after    7 cycles
 SCF Done:  E(RM062X) =  -653.753848881     A.U. after    7 cycles
 SCF Done:  E(RM062X) =  -653.753848944     A.U. after    6 cycles
 Optimization completed.
    -- Stationary point found.
 Normal termination of Gaussian 09 at Fri Dec 20 01:18:30 2024.

 -------------------------------------------------------------------
 #N Geom=AllCheck Guess=TCheck SCRF=Check GenChk RM062X/CC-pVTZ Freq
 -------------------------------------------------------------------

 Structure from the checkpoint file:  "2PVTZDMAN.chk"
 ----------
 [No Title]
 ----------
 Charge =  0 Multiplicity = 1

                         Standard orientation:
 ---------------------------------------------------------------------
 Center     Atomic      Atomic             Coordinates (Angstroms)
 Number     Number       Type             X           Y           Z
 ---------------------------------------------------------------------
      1          6           0        0.674649   -2.420549   -0.230764
      2          6           0        2.072732   -2.378550   -0.369327
      3          6           0        2.737802   -1.202913   -0.204734
      4          6           0        2.020829    0.000471   -0.000004
      5          6           0        0.597278    0.000133   -0.000008
      6          6           0       -0.066786   -1.281991    0.004286
      7          6           0        2.737229    1.204194    0.204736
      8          6           0        2.071600    2.379515    0.369335
      9          6           0        0.673498    2.420850    0.230770
     10          6           0       -0.067392    1.281943   -0.004295
     11          7           0       -1.444328   -1.368898    0.265199
     12          7           0       -1.444974    1.368207   -0.265205
     13          6           0       -1.877972   -0.865058    1.559915
     14          6           0       -2.112824   -2.602671   -0.075030
     15          6           0       -2.114030    2.601663    0.075068
     16          6           0       -1.878373    0.864234   -1.559952
     17          1           0        0.184330   -3.381800   -0.250377
     18          1           0        2.613952   -3.297946   -0.548388
     19          1           0        3.818517   -1.161621   -0.235506
     20          1           0        3.817964    1.163415    0.235516
     21          1           0        2.612381    3.299167    0.548409
     22          1           0        0.182718    3.381867    0.250395
     23          1           0       -1.278732   -0.012028    1.858950
     24          1           0       -2.920717   -0.548791    1.501873
     25          1           0       -1.786822   -1.643962    2.329884
     26          1           0       -1.880537   -2.886398   -1.100845
     27          1           0       -1.849341   -3.438696    0.589921
     28          1           0       -3.188411   -2.442978    0.004642
     29          1           0       -1.881874    2.885456    1.100894
     30          1           0       -1.850922    3.437833   -0.589850
     31          1           0       -3.189544    2.441485   -0.004614
     32          1           0       -1.278749    0.011488   -1.859023
     33          1           0       -2.920978    0.547497   -1.501938
     34          1           0       -1.787565    1.643217   -2.329882
 ---------------------------------------------------------------------

 SCF Done:  E(RM062X) =  -653.753848944     A.U. after    1 cycles

 The electronic state is 1-A.
 Alpha  occ. eigenvalues --  -14.74760 -14.74760 -10.57767 -10.57766 -10.55813
 Alpha  occ. eigenvalues --  -10.55813 -10.55260 -10.55260 -10.54823 -10.54548
 Alpha  occ. eigenvalues --  -10.53535 -10.53535 -10.52940 -10.52940 -10.52886
 Alpha  occ. eigenvalues --  -10.52884  -1.05956  -1.04138  -0.96570  -0.91505
 Alpha  occ. eigenvalues --   -0.86109  -0.83738  -0.81681  -0.80275  -0.80049
 Alpha  occ. eigenvalues --   -0.73955  -0.73900  -0.69317  -0.67893  -0.63571
 Alpha  occ. eigenvalues --   -0.59396  -0.58301  -0.57470  -0.55089  -0.54580
 Alpha  occ. eigenvalues --   -0.53461  -0.52594  -0.52108  -0.51163  -0.48701
 Alpha  occ. eigenvalues --   -0.47476  -0.46832  -0.46163  -0.45708  -0.45391
 Alpha  occ. eigenvalues --   -0.44545  -0.44178  -0.43229  -0.43075  -0.42777
 Alpha  occ. eigenvalues --   -0.39829  -0.39057  -0.38992  -0.34867  -0.31922
 Alpha  occ. eigenvalues --   -0.29221  -0.25768  -0.23427
 Alpha virt. eigenvalues --   -0.00285   0.01645   0.05778   0.06945   0.08294
 Alpha virt. eigenvalues --    0.08364   0.10039   0.10446   0.10881   0.11045
 Alpha virt. eigenvalues --    0.12464   0.13220   0.13286   0.14019   0.14296

 Mulliken charges:
               1
     1  C   -0.233727
     2  C   -0.095152
     3  C   -0.177247
     4  C    0.165051
     5  C    0.117699
     6  C    0.032896
     7  C   -0.177246
     8  C   -0.095152
     9  C   -0.233718
    10  C    0.032887
    11  N   -0.123088
    12  N   -0.123091
    13  C   -0.295973
    14  C   -0.344078
    15  C   -0.344084
    16  C   -0.295969
    17  H    0.116260
    18  H    0.093947
    19  H    0.092666
    20  H    0.092668
    21  H    0.093944
    22  H    0.116264
    23  H    0.151752
    24  H    0.134386
    25  H    0.113471
    26  H    0.139031
    27  H    0.123014
    28  H    0.130466
    29  H    0.139034
    30  H    0.123014
    31  H    0.130468
    32  H    0.151751
    33  H    0.134385
    34  H    0.113471
 Sum of Mulliken charges =  -0.00000

 Dipole moment (field-independent basis, Debye):
    X=             -1.5545    Y=             -0.0003    Z=              0.0000  Tot=              1.5545
 Quadrupole moment (field-independent basis, Debye-Ang):
   XX=            -90.0919   YY=            -89.1050   ZZ=           -100.7235
   XY=             -0.0003   XZ=             -0.0003   YZ=              1.5263

  Exact polarizability: 211.469  -0.001 214.227  -0.002   7.925 113.654
 Approx polarizability: 267.378  -0.003 279.168  -0.004  16.062 155.600

                      1                      2                      3
                      A                      A                      A
 Frequencies --     58.1265                86.1555                91.8296
 Red. masses --      3.7738                 2.2006                 1.7815
 Frc consts  --      0.0075                 0.0096                 0.0089
 IR Inten    --      0.4845                 0.2407                 4.3831

                      4                      5                      6
                      A                      A                      A
 Frequencies --    124.7288               137.2265               148.0498
 Red. masses --      2.6748                 3.0183                 3.0024
 Frc consts  --      0.0245                 0.0335                 0.0388
 IR Inten    --      1.2834                 0.0591                 0.2466

                      7                      8                      9
                      A                      A                      A
 Frequencies --    181.2271               218.6174               254.1291
 Red. masses --      1.9106                 2.4548                 1.5129
 Frc consts  --      0.0370                 0.0691                 0.0576
 IR Inten    --      0.9951                 0.0006                 0.5787

                     10                     11                     12
                      A                      A                      A
 Frequencies --    276.8897               308.7787               325.1639
 Red. masses --      1.9481                 2.0109                 1.7292
 Frc consts  --      0.0880                 0.1130                 0.1077
 IR Inten    --      4.8486                 4.2706                 0.8745

                     13                     14                     15
                      A                      A                      A
 Frequencies --    330.8867               337.2399               366.6217
 Red. masses --      1.5965                 1.6608                 2.6249
 Frc consts  --      0.1030                 0.1113                 0.2079
 IR Inten    --      1.7681                 0.1007                 0.8822

                     16                     17                     18
                      A                      A                      A
 Frequencies --    374.8819               396.5774               454.9950
 Red. masses --      3.2596                 2.9019                 2.9538
 Frc consts  --      0.2699                 0.2689                 0.3603
 IR Inten    --      3.5238                 3.1446                 1.2279

                     19                     20                     21
                      A                      A                      A
 Frequencies --    481.9121               489.6178               540.4646
 Red. masses --      4.5956                 3.3835                 4.0573
 Frc consts  --      0.6288                 0.4779                 0.6983
 IR Inten    --      5.1820                 2.4491                 4.6496

                     22                     23                     24
                      A                      A                      A
 Frequencies --    545.2846               549.5658               552.8169
 Red. masses --      3.7278                 3.9422                 5.7173
 Frc consts  --      0.6530                 0.7015                 1.0295
 IR Inten    --      1.4891                 0.0179                 1.9637

                     25                     26                     27
                      A                      A                      A
 Frequencies --    645.3537               667.9158               690.5839
 Red. masses --      4.2243                 3.8384                 2.7497
 Frc consts  --      1.0366                 1.0089                 0.7726
 IR Inten    --      3.9941                 8.8444                 8.2336

                     28                     29                     30
                      A                      A                      A
 Frequencies --    780.4350               785.0049               793.6245
 Red. masses --      5.1115                 1.3651                 1.4795
 Frc consts  --      1.8343                 0.4956                 0.5490
 IR Inten    --      0.1759                 0.2837                76.2521

                     31                     32                     33
                      A                      A                      A
 Frequencies --    795.4471               866.3283               897.9406
 Red. masses --      5.1697                 4.4292                 1.4717
 Frc consts  --      1.9273                 1.9586                 0.6991
 IR Inten    --      3.3884                23.8901                 0.2470

                     34                     35                     36
                      A                      A                      A
 Frequencies --    914.2431               925.1935               972.7037
 Red. masses --      1.5330                 4.1577                 3.5882
 Frc consts  --      0.7550                 2.0968                 2.0003
 IR Inten    --      2.2845                 0.9892                32.2380

                     37                     38                     39
                      A                      A                      A
 Frequencies --    999.8276              1007.7864              1062.7155
 Red. masses --      1.3128                 1.3274                 3.9749
 Frc consts  --      0.7732                 0.7943                 2.6449
 IR Inten    --      0.7078                 0.5193                28.7538

                     40                     41                     42
                      A                      A                      A
 Frequencies --   1064.7683              1096.2089              1096.6252
 Red. masses --      2.4613                 1.3817                 1.3616
 Frc consts  --      1.6441                 0.9782                 0.9648
 IR Inten    --     83.6573                16.3839                 9.5163

                     43                     44                     45
                      A                      A                      A
 Frequencies --   1120.8535              1122.5204              1135.6959
 Red. masses --      1.2825                 1.3457                 1.7176
 Frc consts  --      0.9493                 0.9991                 1.3053
 IR Inten    --     10.0124                 3.5081                 0.0504

                     46                     47                     48
                      A                      A                      A
 Frequencies --   1144.0763              1169.4319              1171.8087
 Red. masses --      1.6636                 1.4610                 1.4545
 Frc consts  --      1.2829                 1.1772                 1.1767
 IR Inten    --      4.6263                 1.2928                42.0492

                     49                     50                     51
                      A                      A                      A
 Frequencies --   1177.5766              1198.3322              1222.4091
 Red. masses --      1.4803                 1.2241                 2.2215
 Frc consts  --      1.2094                 1.0357                 1.9558
 IR Inten    --      3.4966                 2.8683                11.6813

                     52                     53                     54
                      A                      A                      A
 Frequencies --   1230.4608              1242.1161              1270.5482
 Red. masses --      1.5372                 1.8159                 4.0367
 Frc consts  --      1.3713                 1.6507                 3.8394
 IR Inten    --      6.4136                13.0110                 8.6149

                     55                     56                     57
                      A                      A                      A
 Frequencies --   1270.5511              1351.3915              1365.9808
 Red. masses --      3.2735                 3.1261                 1.9743
 Frc consts  --      3.1135                 3.3637                 2.1705
 IR Inten    --     34.3080                 8.0212                32.3914

                     58                     59                     60
                      A                      A                      A
 Frequencies --   1390.3148              1392.6976              1431.8153
 Red. masses --      7.5580                 3.3241                 2.9118
 Frc consts  --      8.6076                 3.7987                 3.5171
 IR Inten    --      9.7778                23.3849               107.7248

                     61                     62                     63
                      A                      A                      A
 Frequencies --   1448.5719              1450.3310              1469.1885
 Red. masses --      1.1628                 1.2189                 1.6345
 Frc consts  --      1.4376                 1.5106                 2.0787
 IR Inten    --      0.2393                 8.8185                12.0663

                     64                     65                     66
                      A                      A                      A
 Frequencies --   1472.1994              1482.2136              1485.0250
 Red. masses --      1.3758                 1.1424                 1.2881
 Frc consts  --      1.7568                 1.4788                 1.6737
 IR Inten    --      3.0924                 6.9430                 1.4792

                     67                     68                     69
                      A                      A                      A
 Frequencies --   1486.3514              1493.8862              1498.3875
 Red. masses --      1.0636                 1.1001                 1.0510
 Frc consts  --      1.3844                 1.4464                 1.3903
 IR Inten    --      6.5681                 4.3943                29.1743

                     70                     71                     72
                      A                      A                      A
 Frequencies --   1501.5692              1505.7932              1512.1564
 Red. masses --      1.1156                 1.0548                 1.5696
 Frc consts  --      1.4820                 1.4091                 2.1147
 IR Inten    --     14.9463                 0.3093                20.2498

                     73                     74                     75
                      A                      A                      A
 Frequencies --   1528.3911              1531.2253              1567.5524
 Red. masses --      1.1776                 1.1333                 4.0589
 Frc consts  --      1.6207                 1.5656                 5.8762
 IR Inten    --     21.4477                39.4337                21.6448

                     76                     77                     78
                      A                      A                      A
 Frequencies --   1650.2050              1674.6042              1684.9923
 Red. masses --      6.6315                 5.6242                 6.3561
 Frc consts  --     10.6400                 9.2926                10.6325
 IR Inten    --    212.2197                 3.0383                16.0994

                     79                     80                     81
                      A                      A                      A
 Frequencies --   2974.5335              2975.0388              2994.2780
 Red. masses --      1.0568                 1.0568                 1.0556
 Frc consts  --      5.5093                 5.5111                 5.5763
 IR Inten    --    140.4757                15.4231               155.6308

                     82                     83                     84
                      A                      A                      A
 Frequencies --   2995.2812              3086.3978              3086.4592
 Red. masses --      1.0549                 1.0797                 1.0765
 Frc consts  --      5.5762                 6.0598                 6.0423
 IR Inten    --     33.7206                75.8977                16.2922

                     85                     86                     87
                      A                      A                      A
 Frequencies --   3087.0157              3088.6394              3137.1354
 Red. masses --      1.0837                 1.0866                 1.1029
 Frc consts  --      6.0847                 6.1072                 6.3951
 IR Inten    --      0.7249                15.9886                11.5568

                     88                     89                     90
                      A                      A                      A
 Frequencies --   3137.1601              3180.8187              3181.8743
 Red. masses --      1.1029                 1.0862                 1.0863
 Frc consts  --      6.3950                 6.4752                 6.4796
 IR Inten    --     15.1387                 2.9403                 1.0577

                     91                     92                     93
                      A                      A                      A
 Frequencies --   3188.5565              3188.9722              3197.8733
 Red. masses --      1.0947                 1.0947                 1.0958
 Frc consts  --      6.5577                 6.5593                 6.6025
 IR Inten    --      3.0334                 7.7478                 4.9300

                     94                     95                     96
                      A                      A                      A
 Frequencies --   3199.8061              3215.5798              3215.6379
 Red. masses --      1.0949                 1.0926                 1.0926
 Frc consts  --      6.6050                 6.6563                 6.6562
 IR Inten    --     27.1000                 6.8087                 2.9827

 - Thermochemistry -
 -------------------
 Temperature   298.150 Kelvin.  Pressure   1.00000 Atm.
 Atom     1 has atomic number  6 and mass  12.00000

 Molecular mass:   214.14700 amu.
 Principal axes and moments of inertia in atomic units:
                           1         2         3
     Eigenvalues --  2794.318172835.328924968.96527
           X            1.00000  -0.00005   0.00000
           Y            0.00005   1.00000  -0.00201
           Z           -0.00000   0.00201   1.00000
 This molecule is an asymmetric top.
 Rotational symmetry number  1.
 Warning -- assumption of classical behavior for rotation
           may cause significant error
 Rotational temperatures (Kelvin)      0.03100     0.03055     0.01743
 Rotational constants (GHZ):           0.64586     0.63652     0.36320
 Zero-point vibrational energy     775639.4 (Joules/Mol)
                                  185.38226 (Kcal/Mol)
 Warning -- explicit consideration of  24 degrees of freedom as
           vibrations may cause significant error
 Vibrational temperatures:     83.63   123.96   132.12   179.46   197.44
          (Kelvin)            213.01   260.75   314.54   365.63   398.38
                              444.26   467.84   476.07   485.21   527.49
                              539.37   570.59   654.64   693.36   704.45
                              777.61   784.54   790.70   795.38   928.52
                              960.98   993.60  1122.87  1129.45  1141.85
                             1144.47  1246.45  1291.93  1315.39  1331.15
                             1399.50  1438.53  1449.98  1529.01  1531.96
                             1577.20  1577.80  1612.66  1615.05  1634.01
                             1646.07  1682.55  1685.97  1694.27  1724.13
                             1758.77  1770.36  1787.13  1828.03  1828.04
                             1944.35  1965.34  2000.35  2003.78  2060.06
                             2084.17  2086.70  2113.83  2118.16  2132.57
                             2136.62  2138.53  2149.37  2155.84  2160.42
                             2166.50  2175.65  2199.01  2203.09  2255.36
                             2374.27  2409.38  2424.33  4279.68  4280.41
                             4308.09  4309.54  4440.63  4440.72  4441.52
                             4443.86  4513.63  4513.67  4576.48  4578.00
                             4587.62  4588.21  4601.02  4603.80  4626.50
                             4626.58

 Zero-point correction=                           0.295425 (Hartree/Particle)
 Thermal correction to Energy=                    0.310183
 Thermal correction to Enthalpy=                  0.311127
 Thermal correction to Gibbs Free Energy=         0.254800
 Sum of electronic and zero-point Energies=           -653.458424
 Sum of electronic and thermal Energies=              -653.443666
 Sum of electronic and thermal Enthalpies=            -653.442721
 Sum of electronic and thermal Free Energies=         -653.499049

                     E (Thermal)             CV                S
                      KCal/Mol        Cal/Mol-Kelvin    Cal/Mol-Kelvin
 Total                  194.643             58.590            118.551
 Electronic               0.000              0.000              0.000
 Translational            0.889              2.981             41.988
 Rotational               0.889              2.981             32.043
 Vibrational            192.865             52.628             44.520
 Vibration     1          0.596              1.974              4.520
 Vibration     2          0.601              1.959              3.746
 Vibration     3          0.602              1.955              3.621
 Vibration     4          0.610              1.928              3.026
 Vibration     5          0.614              1.916              2.842
 Vibration     6          0.617              1.905              2.697
 Vibration     7          0.630              1.865              2.316
 Vibration     8          0.646              1.813              1.971
 Vibration     9          0.665              1.756              1.702
 Vibration    10          0.678              1.716              1.553
 Vibration    11          0.698              1.657              1.369
 Vibration    12          0.709              1.625              1.284
 Vibration    13          0.713              1.614              1.256
 Vibration    14          0.718              1.601              1.225
 Vibration    15          0.740              1.541              1.094
 Vibration    16          0.746              1.524              1.060
 Vibration    17          0.763              1.477              0.975
 Vibration    18          0.813              1.350              0.781
 Vibration    19          0.838              1.290              0.705
 Vibration    20          0.845              1.273              0.685
 Vibration    21          0.896              1.161              0.564
 Vibration    22          0.900              1.150              0.554
 Vibration    23          0.905              1.141              0.545
 Vibration    24          0.908              1.134              0.538

 Normal termination of Gaussian 09 at Fri Dec 20 03:02:50 2024.
