 Gaussian 09, Revision E.01,
 Gaussian 09:  ES64L-G09RevE.01 30-Nov-2015

 ------------------------
 # opt freq m062x/cc-pvtz
 ------------------------

 ----------
 [No Title]
 ----------
 Symbolic Z-matrix:
 Charge =  0 Multiplicity = 1

 SCF Done:  E(RM062X) =  -571.264584909     A.U. after   15 cycles
 SCF Done:  E(RM062X) =  -571.265056548     A.U. after   11 cycles
 SCF Done:  E(RM062X) =  -571.265066335     A.U. after    9 cycles
 SCF Done:  E(RM062X) =  -571.265064770     A.U. after    9 cycles
 SCF Done:  E(RM062X) =  -571.265066957     A.U. after    8 cycles
 Optimization completed.
    -- Stationary point found.
 Normal termination of Gaussian 09 at Thu Dec 19 16:25:25 2024.

 -------------------------------------------------------------------
 #N Geom=AllCheck Guess=TCheck SCRF=Check GenChk RM062X/CC-pVTZ Freq
 -------------------------------------------------------------------

 Structure from the checkpoint file:  "ccpvTZm062xDHB.chk"
 ----------
 [No Title]
 ----------
 Charge =  0 Multiplicity = 1

                         Standard orientation:
 ---------------------------------------------------------------------
 Center     Atomic      Atomic             Coordinates (Angstroms)
 Number     Number       Type             X           Y           Z
 ---------------------------------------------------------------------
      1          6           0        0.232647    1.266008    0.000034
      2          6           0        0.460933   -0.117592    0.000139
      3          6           0       -0.624761   -0.990870    0.000124
      4          6           0       -1.924804   -0.519462    0.000019
      5          6           0       -2.148854    0.850312   -0.000078
      6          6           0       -1.079137    1.727893   -0.000067
      7          8           0       -2.934315   -1.437351    0.000010
      8          6           0        1.841498   -0.669649    0.000274
      9          8           0        1.845205   -2.023205   -0.000130
     10          8           0        2.861788   -0.041150   -0.000187
     11          8           0        1.277147    2.125608    0.000043
     12          1           0       -0.454853   -2.056596    0.000203
     13          1           0       -3.161184    1.236822   -0.000163
     14          1           0       -1.261939    2.795696   -0.000143
     15          1           0       -3.782513   -0.987650   -0.000023
     16          1           0        2.774533   -2.285543   -0.000413
     17          1           0        0.942221    3.026216   -0.000020
 ---------------------------------------------------------------------

 SCF Done:  E(RM062X) =  -571.265066957     A.U. after    1 cycles

 The electronic state is 1-A.
 Alpha  occ. eigenvalues --  -19.66403 -19.65853 -19.65830 -19.60864 -10.67507
 Alpha  occ. eigenvalues --  -10.62035 -10.61065 -10.56593 -10.56404 -10.55935
 Alpha  occ. eigenvalues --  -10.55373  -1.23475  -1.19690  -1.19316  -1.13647
 Alpha  occ. eigenvalues --   -0.97590  -0.88196  -0.84774  -0.76300  -0.72886
 Alpha  occ. eigenvalues --   -0.69246  -0.64054  -0.62728  -0.58713  -0.57070
 Alpha  occ. eigenvalues --   -0.56127  -0.54128  -0.52548  -0.50772  -0.49864
 Alpha  occ. eigenvalues --   -0.49607  -0.48749  -0.47043  -0.44732  -0.42692
 Alpha  occ. eigenvalues --   -0.39889  -0.39479  -0.34931  -0.32987  -0.27322
 Alpha virt. eigenvalues --   -0.02085   0.03481   0.05311   0.05692   0.07726
 Alpha virt. eigenvalues --    0.09299   0.10354   0.13240   0.14466   0.20805
 Alpha virt. eigenvalues --    0.21841   0.22518   0.24299   0.25055   0.28215

 Mulliken charges:
               1
     1  C    0.220717
     2  C   -0.082565
     3  C   -0.163193
     4  C    0.232835
     5  C   -0.174805
     6  C   -0.200309
     7  O   -0.346011
     8  C    0.335484
     9  O   -0.326064
    10  O   -0.323041
    11  O   -0.294713
    12  H    0.159927
    13  H    0.097165
    14  H    0.090417
    15  H    0.255140
    16  H    0.266145
    17  H    0.252871
 Sum of Mulliken charges =  -0.00000

 Dipole moment (field-independent basis, Debye):
    X=             -3.4954    Y=              1.5748    Z=              0.0001  Tot=              3.8337
 Quadrupole moment (field-independent basis, Debye-Ang):
   XX=            -57.1697   YY=            -52.4137   ZZ=            -64.8203
   XY=             -9.6705   XZ=              0.0007   YZ=              0.0001

  Exact polarizability: 121.273  -0.871 105.408  -0.000  -0.002  45.604
 Approx polarizability: 150.484   4.663 139.733  -0.001  -0.004  64.430

                      1                      2                      3
                      A                      A                      A
 Frequencies --     28.6243               123.3038               171.8804
 Red. masses --     11.4805                 5.4200                 5.0506
 Frc consts  --      0.0055                 0.0486                 0.0879
 IR Inten    --      2.3873                 2.9513                 6.1259

                      4                      5                      6
                      A                      A                      A
 Frequencies --    208.4297               305.7224               329.8833
 Red. masses --      7.7138                 1.0870                 1.1203
 Frc consts  --      0.1974                 0.0599                 0.0718
 IR Inten    --      2.7471                85.9193               108.4478

                      7                      8                      9
                      A                      A                      A
 Frequencies --    332.5663               383.1624               401.6449
 Red. masses --      6.9074                 6.5005                 9.7127
 Frc consts  --      0.4501                 0.5623                 0.9232
 IR Inten    --      0.6387                 0.2812                 2.9035

                     10                     11                     12
                      A                      A                      A
 Frequencies --    409.5757               443.5789               488.7805
 Red. masses --      6.2795                 2.9542                 7.9952
 Frc consts  --      0.6206                 0.3425                 1.1254
 IR Inten    --      0.8892                 5.0464                 0.9982

                     13                     14                     15
                      A                      A                      A
 Frequencies --    553.0845               553.5575               593.6124
 Red. masses --      4.0494                 1.8016                 1.6137
 Frc consts  --      0.7298                 0.3253                 0.3350
 IR Inten    --     33.2442                 4.9412               108.6780

                     16                     17                     18
                      A                      A                      A
 Frequencies --    677.2245               725.2638               746.3268
 Red. masses --      5.1197                 4.0064                 5.2282
 Frc consts  --      1.3835                 1.2416                 1.7158
 IR Inten    --     43.7586                 9.5674                30.1896

                     19                     20                     21
                      A                      A                      A
 Frequencies --    814.0113               816.7591               843.4394
 Red. masses --      5.9013                 2.4635                 2.4926
 Frc consts  --      2.3039                 0.9683                 1.0448
 IR Inten    --     50.1027                 0.0952                67.1735

                     22                     23                     24
                      A                      A                      A
 Frequencies --    937.6700               959.6907               974.1744
 Red. masses --      1.5317                 1.3813                 5.2653
 Frc consts  --      0.7935                 0.7496                 2.9440
 IR Inten    --      4.7746                 4.8050                10.8852

                     25                     26                     27
                      A                      A                      A
 Frequencies --   1088.9656              1170.1921              1184.0625
 Red. masses --      3.3008                 1.6639                 1.4707
 Frc consts  --      2.3062                 1.3424                 1.2148
 IR Inten    --     83.8491                45.2894               169.3931

                     28                     29                     30
                      A                      A                      A
 Frequencies --   1207.8005              1220.9433              1296.2554
 Red. masses --      1.4108                 1.2526                 2.0140
 Frc consts  --      1.2126                 1.1001                 1.9938
 IR Inten    --    218.8155               153.4086                28.7763

                     31                     32                     33
                      A                      A                      A
 Frequencies --   1331.3516              1343.6369              1365.4214
 Red. masses --      9.5928                 1.5094                 2.5731
 Frc consts  --     10.0180                 1.6055                 2.8264
 IR Inten    --      8.9991               228.3410                59.5148

                     34                     35                     36
                      A                      A                      A
 Frequencies --   1397.8907              1511.7424              1566.3997
 Red. masses --      3.6835                 3.5039                 3.2790
 Frc consts  --      4.2409                 4.7180                 4.7403
 IR Inten    --     82.0658                26.7674               188.7771

                     37                     38                     39
                      A                      A                      A
 Frequencies --   1681.0966              1712.2876              1868.5035
 Red. masses --      6.8436                 6.7640                10.4870
 Frc consts  --     11.3951                11.6845                21.5719
 IR Inten    --     57.2139                 3.4272               384.6842

                     40                     41                     42
                      A                      A                      A
 Frequencies --   3169.4428              3185.1412              3235.9079
 Red. masses --      1.0880                 1.0959                 1.0915
 Frc consts  --      6.4391                 6.5507                 6.7336
 IR Inten    --     11.3153                 3.9786                 4.0225

                     43                     44                     45
                      A                      A                      A
 Frequencies --   3837.5601              3884.1713              3899.8130
 Red. masses --      1.0646                 1.0660                 1.0662
 Frc consts  --      9.2373                 9.4754                 9.5538
 IR Inten    --    124.0192                79.9054                83.3881

 - Thermochemistry -
 -------------------
 Temperature   298.150 Kelvin.  Pressure   1.00000 Atm.
 Atom     1 has atomic number  6 and mass  12.00000

 Molecular mass:   154.02661 amu.
 Principal axes and moments of inertia in atomic units:
                           1         2         3
     Eigenvalues --  1014.570871952.066832966.63768
           X            0.99972  -0.02380   0.00001
           Y            0.02380   0.99972   0.00000
           Z           -0.00001  -0.00000   1.00000
 This molecule is an asymmetric top.
 Rotational symmetry number  1.
 Warning -- assumption of classical behavior for rotation
           may cause significant error
 Rotational temperatures (Kelvin)      0.08537     0.04437     0.02920
 Rotational constants (GHZ):           1.77882     0.92453     0.60835
 Zero-point vibrational energy     328856.7 (Joules/Mol)
                                   78.59865 (Kcal/Mol)
 Warning -- explicit consideration of  15 degrees of freedom as
           vibrations may cause significant error
 Vibrational temperatures:     41.18   177.41   247.30   299.88   439.87
          (Kelvin)            474.63   478.49   551.28   577.88   589.29
                              638.21   703.25   795.76   796.44   854.07
                              974.37  1043.49  1073.80  1171.18  1175.13
                             1213.52  1349.10  1380.78  1401.62  1566.78
                             1683.64  1703.60  1737.75  1756.66  1865.02
                             1915.52  1933.19  1964.53  2011.25  2175.06
                             2253.70  2418.72  2463.60  2688.36  4560.12
                             4582.70  4655.74  5521.39  5588.45  5610.95

 Zero-point correction=                           0.125255 (Hartree/Particle)
 Thermal correction to Energy=                    0.134786
 Thermal correction to Enthalpy=                  0.135730
 Thermal correction to Gibbs Free Energy=         0.089837
 Sum of electronic and zero-point Energies=           -571.139812
 Sum of electronic and thermal Energies=              -571.130281
 Sum of electronic and thermal Enthalpies=            -571.129337
 Sum of electronic and thermal Free Energies=         -571.175230

                     E (Thermal)             CV                S
                      KCal/Mol        Cal/Mol-Kelvin    Cal/Mol-Kelvin
 Total                   84.580             36.347             96.591
 Electronic               0.000              0.000              0.000
 Translational            0.889              2.981             41.006
 Rotational               0.889              2.981             30.153
 Vibrational             82.802             30.386             25.432
 Vibration     1          0.593              1.984              5.923
 Vibration     2          0.610              1.930              3.048
 Vibration     3          0.626              1.877              2.415
 Vibration     4          0.642              1.828              2.057
 Vibration     5          0.696              1.663              1.385
 Vibration     6          0.713              1.616              1.261
 Vibration     7          0.715              1.610              1.248
 Vibration     8          0.752              1.506              1.027
 Vibration     9          0.767              1.467              0.957
 Vibration    10          0.774              1.449              0.928
 Vibration    11          0.803              1.375              0.815
 Vibration    12          0.845              1.275              0.687
 Vibration    13          0.908              1.133              0.538
 Vibration    14          0.909              1.132              0.537
 Vibration    15          0.951              1.045              0.461

 Optimization completed.
    -- Stationary point found.
 Normal termination of Gaussian 09 at Thu Dec 19 16:30:41 2024.
