 Gaussian 09, Revision E.01,
 Gaussian 09:  ES64L-G09RevE.01 30-Nov-2015

 ------------------------
 # opt freq m062x/cc-pvtz
 ------------------------

 ----------
 [No Title]
 ----------
 Symbolic Z-matrix:
 Charge =  1 Multiplicity = 1

 SCF Done:  E(RM062X) =  -571.595675623     A.U. after   15 cycles
 SCF Done:  E(RM062X) =  -571.596148675     A.U. after   11 cycles
 SCF Done:  E(RM062X) =  -571.596158389     A.U. after    8 cycles
 SCF Done:  E(RM062X) =  -571.596158951     A.U. after    7 cycles
 Optimization completed.
    -- Stationary point found.
 Normal termination of Gaussian 09 at Thu Dec 19 16:31:24 2024.

 -------------------------------------------------------------------
 #N Geom=AllCheck Guess=TCheck SCRF=Check GenChk RM062X/CC-pVTZ Freq
 -------------------------------------------------------------------

 Structure from the checkpoint file:  "ccpvTZDHByang.chk"
 ----------
 [No Title]
 ----------
 Charge =  1 Multiplicity = 1

                         Standard orientation:
 ---------------------------------------------------------------------
 Center     Atomic      Atomic             Coordinates (Angstroms)
 Number     Number       Type             X           Y           Z
 ---------------------------------------------------------------------
      1          6           0        0.220364    1.265380   -0.000003
      2          6           0        0.416656   -0.135644    0.000002
      3          6           0       -0.693532   -1.011165    0.000009
      4          6           0       -1.971663   -0.514605    0.000014
      5          6           0       -2.156564    0.877398    0.000010
      6          6           0       -1.088193    1.744419    0.000001
      7          8           0       -2.992442   -1.393072    0.000023
      8          6           0        1.713671   -0.712967   -0.000003
      9          8           0        1.802960   -2.009190   -0.000034
     10          8           0        2.770949    0.029116    0.000004
     11          8           0        1.275741    2.081865   -0.000012
     12          1           0       -0.546382   -2.080608    0.000013
     13          1           0       -3.162369    1.280881    0.000013
     14          1           0       -1.259964    2.812950   -0.000002
     15          1           0       -3.845990   -0.949683    0.000022
     16          1           0        2.700084   -2.371507   -0.000016
     17          1           0        3.616121   -0.443458   -0.000033
     18          1           0        0.996409    3.004784   -0.000021
 ---------------------------------------------------------------------

 SCF Done:  E(RM062X) =  -571.596158951     A.U. after    1 cycles

 The electronic state is 1-A.
 Alpha  occ. eigenvalues --  -19.89462 -19.89416 -19.82048 -19.78750 -10.91567
 Alpha  occ. eigenvalues --  -10.79034 -10.75649 -10.73459 -10.71794 -10.70848
 Alpha  occ. eigenvalues --  -10.70600  -1.48509  -1.39855  -1.36205  -1.32762
 Alpha  occ. eigenvalues --   -1.13661  -1.06555  -1.00407  -0.96989  -0.92313
 Alpha  occ. eigenvalues --   -0.88188  -0.86498  -0.81595  -0.78658  -0.76956
 Alpha  occ. eigenvalues --   -0.76269  -0.74166  -0.69880  -0.67393  -0.66809
 Alpha  occ. eigenvalues --   -0.65561  -0.64991  -0.64635  -0.63897  -0.63171
 Alpha  occ. eigenvalues --   -0.58968  -0.56475  -0.54691  -0.48994  -0.42116
 Alpha virt. eigenvalues --   -0.22061  -0.13595  -0.11696  -0.07956  -0.07043
 Alpha virt. eigenvalues --   -0.06524  -0.05394  -0.02651  -0.00784   0.02887
 Alpha virt. eigenvalues --    0.04367   0.06015   0.07591   0.09201   0.10835

 Mulliken charges:
               1
     1  C    0.282520
     2  C   -0.098915
     3  C   -0.128675
     4  C    0.238296
     5  C   -0.104389
     6  C   -0.174215
     7  O   -0.310197
     8  C    0.400403
     9  O   -0.198597
    10  O   -0.165965
    11  O   -0.288216
    12  H    0.172501
    13  H    0.134758
    14  H    0.126128
    15  H    0.273241
    16  H    0.280491
    17  H    0.276176
    18  H    0.284653
 Sum of Mulliken charges =   1.00000

 Dipole moment (field-independent basis, Debye):
    X=              4.0888    Y=              0.1613    Z=             -0.0001  Tot=              4.0920
 Quadrupole moment (field-independent basis, Debye-Ang):
   XX=            -13.9639   YY=            -40.0551   ZZ=            -63.1727
   XY=            -16.4513   XZ=             -0.0003   YZ=             -0.0001

  Exact polarizability: 132.345  -9.004 109.341  -0.000  -0.000  43.966
 Approx polarizability: 162.947  -8.470 146.186  -0.000  -0.000  61.959

                      1                      2                      3
                      A                      A                      A
 Frequencies --     63.7650               113.1384               164.4619
 Red. masses --     10.7561                 4.8698                 5.2690
 Frc consts  --      0.0258                 0.0367                 0.0840
 IR Inten    --      0.0002                15.3195                10.8351

                      4                      5                      6
                      A                      A                      A
 Frequencies --    209.8750               329.0084               338.0771
 Red. masses --      6.3690                 1.1387                 6.3419
 Frc consts  --      0.1653                 0.0726                 0.4271
 IR Inten    --      9.1705               127.4652                 0.3327

                      7                      8                      9
                      A                      A                      A
 Frequencies --    338.5823               370.9430               397.0072
 Red. masses --      1.1009                 3.6673                 7.6636
 Frc consts  --      0.0744                 0.2973                 0.7117
 IR Inten    --      3.7928                 0.1335                 0.6452

                     10                     11                     12
                      A                      A                      A
 Frequencies --    413.4906               416.4501               443.6697
 Red. masses --      1.1575                 5.9756                 2.5135
 Frc consts  --      0.1166                 0.6106                 0.2915
 IR Inten    --    105.0421                 0.7467                 3.3375

                     13                     14                     15
                      A                      A                      A
 Frequencies --    482.1695               533.7632               568.5759
 Red. masses --      7.9104                 1.4092                 2.2074
 Frc consts  --      1.0835                 0.2366                 0.4204
 IR Inten    --      2.1078                98.6915               155.0839

                     16                     17                     18
                      A                      A                      A
 Frequencies --    569.6147               664.3819               718.6546
 Red. masses --      4.0789                 4.4403                 4.5242
 Frc consts  --      0.7798                 1.1548                 1.3767
 IR Inten    --     16.7732                50.3104                 2.7065

                     19                     20                     21
                      A                      A                      A
 Frequencies --    746.3173               801.2854               822.5086
 Red. masses --      5.1082                 4.9410                 5.7542
 Frc consts  --      1.6764                 1.8691                 2.2936
 IR Inten    --     21.3129                 5.1525                35.8596

                     22                     23                     24
                      A                      A                      A
 Frequencies --    863.5725               921.9464               982.2311
 Red. masses --      1.6797                 1.6124                 4.4470
 Frc consts  --      0.7381                 0.8075                 2.5278
 IR Inten    --     52.2633                11.3576                21.1981

                     25                     26                     27
                      A                      A                      A
 Frequencies --    997.2211              1119.2645              1137.5081
 Red. masses --      1.3630                 2.8740                 1.1122
 Frc consts  --      0.7986                 2.1213                 0.8479
 IR Inten    --      0.6651                90.3289               177.4327

                     28                     29                     30
                      A                      A                      A
 Frequencies --   1176.5198              1193.3223              1203.8900
 Red. masses --      1.8810                 1.4530                 1.2296
 Frc consts  --      1.5341                 1.2191                 1.0500
 IR Inten    --    227.4898               374.2860                28.7117

                     31                     32                     33
                      A                      A                      A
 Frequencies --   1224.9762              1311.1425              1330.8338
 Red. masses --      1.2485                 1.8737                 7.8628
 Frc consts  --      1.1038                 1.8978                 8.2049
 IR Inten    --    221.7123                 7.6530                79.2023

                     34                     35                     36
                      A                      A                      A
 Frequencies --   1353.1621              1425.0923              1479.4247
 Red. masses --      1.6576                 4.3414                 3.3373
 Frc consts  --      1.7882                 5.1948                 4.3036
 IR Inten    --    272.2328                47.7600                 8.8259

                     37                     38                     39
                      A                      A                      A
 Frequencies --   1540.8087              1578.6012              1624.4696
 Red. masses --      4.2131                 4.6089                 4.3609
 Frc consts  --      5.8931                 6.7670                 6.7804
 IR Inten    --     19.8602               518.7989               812.4710

                     40                     41                     42
                      A                      A                      A
 Frequencies --   1651.6805              1718.6549              3180.3826
 Red. masses --      6.3960                 6.3750                 1.0906
 Frc consts  --     10.2804                11.0946                 6.4992
 IR Inten    --     69.8686                28.2049                 1.3161

                     43                     44                     45
                      A                      A                      A
 Frequencies --   3197.9615              3235.3979              3781.3484
 Red. masses --      1.0960                 1.0925                 1.0678
 Frc consts  --      6.6041                 6.7378                 8.9957
 IR Inten    --      2.1965                10.3009                97.0462

                     46                     47                     48
                      A                      A                      A
 Frequencies --   3799.8235              3843.9340              3875.6023
 Red. masses --      1.0663                 1.0665                 1.0668
 Frc consts  --      9.0713                 9.2844                 9.4409
 IR Inten    --    594.7803               190.0817               156.9406

 - Thermochemistry -
 -------------------
 Temperature   298.150 Kelvin.  Pressure   1.00000 Atm.
 Atom     1 has atomic number  6 and mass  12.00000

 Molecular mass:   155.03443 amu.
 Principal axes and moments of inertia in atomic units:
                           1         2         3
     Eigenvalues --  1004.604431974.923772979.52819
           X            0.99959  -0.02854   0.00001
           Y            0.02854   0.99959  -0.00000
           Z           -0.00001   0.00000   1.00000
 This molecule is an asymmetric top.
 Rotational symmetry number  1.
 Warning -- assumption of classical behavior for rotation
           may cause significant error
 Rotational temperatures (Kelvin)      0.08622     0.04386     0.02907
 Rotational constants (GHZ):           1.79647     0.91383     0.60571
 Zero-point vibrational energy     360402.0 (Joules/Mol)
                                   86.13815 (Kcal/Mol)
 Warning -- explicit consideration of  16 degrees of freedom as
           vibrations may cause significant error
 Vibrational temperatures:     91.74   162.78   236.62   301.96   473.37
          (Kelvin)            486.42   487.14   533.70   571.20   594.92
                              599.18   638.34   693.73   767.97   818.05
                              819.55   955.90  1033.98  1073.78  1152.87
                             1183.40  1242.49  1326.47  1413.21  1434.78
                             1610.37  1636.62  1692.75  1716.92  1732.13
                             1762.47  1886.44  1914.77  1946.90  2050.39
                             2128.56  2216.88  2271.25  2337.25  2376.40
                             2472.76  4575.86  4601.15  4655.01  5440.51
                             5467.09  5530.56  5576.12

 Zero-point correction=                           0.137270 (Hartree/Particle)
 Thermal correction to Energy=                    0.147056
 Thermal correction to Enthalpy=                  0.148000
 Thermal correction to Gibbs Free Energy=         0.102317
 Sum of electronic and zero-point Energies=           -571.458889
 Sum of electronic and thermal Energies=              -571.449103
 Sum of electronic and thermal Enthalpies=            -571.448159
 Sum of electronic and thermal Free Energies=         -571.493842

                     E (Thermal)             CV                S
                      KCal/Mol        Cal/Mol-Kelvin    Cal/Mol-Kelvin
 Total                   92.279             37.978             96.148
 Electronic               0.000              0.000              0.000
 Translational            0.889              2.981             41.025
 Rotational               0.889              2.981             30.159
 Vibrational             90.502             32.017             24.964
 Vibration     1          0.597              1.972              4.337
 Vibration     2          0.607              1.939              3.214
 Vibration     3          0.623              1.886              2.498
 Vibration     4          0.642              1.826              2.045
 Vibration     5          0.712              1.618              1.265
 Vibration     6          0.718              1.599              1.221
 Vibration     7          0.719              1.598              1.219
 Vibration     8          0.743              1.532              1.076
 Vibration     9          0.764              1.477              0.974
 Vibration    10          0.777              1.441              0.914
 Vibration    11          0.780              1.435              0.904
 Vibration    12          0.803              1.375              0.815
 Vibration    13          0.838              1.290              0.704
 Vibration    14          0.889              1.175              0.579
 Vibration    15          0.925              1.099              0.507
 Vibration    16          0.926              1.097              0.505

 Optimization completed.
    -- Stationary point found.
 Normal termination of Gaussian 09 at Thu Dec 19 16:44:47 2024.
