 Gaussian 09, Revision E.01,
 Gaussian 09:  ES64L-G09RevE.01 30-Nov-2015

 -----------------------------------------------------
 # opt freq B2PLYP/6-31+g(d,p) EmpiricalDispersion=GD3
 -----------------------------------------------------

 ----------
 [No Title]
 ----------
 Symbolic Z-matrix:
 Charge =  1 Multiplicity = 1

 SCF Done:  E(RB2PLYP) =  -801.331769128     A.U. after   16 cycles
 E2(B2PLYP) =    -0.7920288035D+00 E(B2PLYP) =    -0.80212379793102D+03
 SCF Done:  E(RB2PLYP) =  -801.331140075     A.U. after   12 cycles
 E2(B2PLYP) =    -0.7930010280D+00 E(B2PLYP) =    -0.80212414110338D+03
 SCF Done:  E(RB2PLYP) =  -801.330955471     A.U. after   11 cycles
 E2(B2PLYP) =    -0.7932231784D+00 E(B2PLYP) =    -0.80212417864982D+03
 SCF Done:  E(RB2PLYP) =  -801.330909652     A.U. after   11 cycles
 E2(B2PLYP) =    -0.7932755062D+00 E(B2PLYP) =    -0.80212418515843D+03
 SCF Done:  E(RB2PLYP) =  -801.330888011     A.U. after   11 cycles
 E2(B2PLYP) =    -0.7933009251D+00 E(B2PLYP) =    -0.80212418893594D+03
 SCF Done:  E(RB2PLYP) =  -801.330893463     A.U. after   11 cycles
 E2(B2PLYP) =    -0.7932990301D+00 E(B2PLYP) =    -0.80212419249296D+03
 SCF Done:  E(RB2PLYP) =  -801.330909120     A.U. after   11 cycles
 E2(B2PLYP) =    -0.7932847761D+00 E(B2PLYP) =    -0.80212419389580D+03
 SCF Done:  E(RB2PLYP) =  -801.330912186     A.U. after    8 cycles
 E2(B2PLYP) =    -0.7932819776D+00 E(B2PLYP) =    -0.80212419416358D+03
 Optimization completed.
    -- Stationary point found.
 Normal termination of Gaussian 09 at Wed Dec 18 15:13:32 2024.

 ----------------------------------------------------------------------
 #N Geom=AllCheck Guess=TCheck SCRF=Check GenChk RB2PLYP(FC)/6-31+G(d,p
 ) Freq
 ----------------------------------------------------------------------

 Structure from the checkpoint file:  "B2PLYPD3SAYang.chk"
 ----------
 [No Title]
 ----------
 Charge =  1 Multiplicity = 1

                         Standard orientation:
 ---------------------------------------------------------------------
 Center     Atomic      Atomic             Coordinates (Angstroms)
 Number     Number       Type             X           Y           Z
 ---------------------------------------------------------------------
      1          6           0       -2.400674    0.204925    0.001137
      2          6           0       -1.930174   -1.134164   -0.008605
      3          6           0       -0.560999   -1.354807   -0.012403
      4          6           0        0.358472   -0.265613   -0.009617
      5          6           0       -0.124958    1.074174    0.005237
      6          6           0       -1.486343    1.296702    0.007261
      7          8           0       -3.711215    0.420733    0.004971
      8          8           0       -2.895014   -2.071840   -0.011977
      9          6           0       -2.497155   -3.449798   -0.023253
     10          8           0       -2.119677    2.496881    0.018948
     11          6           0       -1.323216    3.693058    0.024557
     12          6           0        1.735319   -0.574791   -0.014592
     13          6           0        2.802657    0.322385   -0.025889
     14          6           0        4.115528   -0.117399    0.000510
     15          8           0        5.088343    0.775569   -0.137339
     16          8           0        4.406259   -1.404918    0.172808
     17          1           0       -0.171935   -2.364024   -0.020100
     18          1           0        0.563244    1.906595    0.013230
     19          1           0       -3.876197    1.380669    0.012622
     20          1           0       -3.424940   -4.014098   -0.025116
     21          1           0       -1.922019   -3.678070   -0.924213
     22          1           0       -1.917495   -3.691579    0.871258
     23          1           0       -2.033978    4.513935    0.031490
     24          1           0       -0.701447    3.729851    0.921688
     25          1           0       -0.705766    3.741069   -0.875033
     26          1           0        1.989937   -1.631054   -0.007631
     27          1           0        2.669778    1.394089   -0.060156
     28          1           0        5.959148    0.463693    0.154879
     29          1           0        5.291365   -1.650515   -0.138275
 ---------------------------------------------------------------------

 SCF Done:  E(RB2PLYP) =  -801.330912186     A.U. after    1 cycles
 E2(B2PLYP) =    -0.7932819866D+00 E(B2PLYP) =    -0.80212419417256D+03
 E2(B2PLYP) =    -0.7932819866D+00 E(B2PLYP) =    -0.80212419417256D+03

 The electronic state is 1-A.
 Alpha  occ. eigenvalues --  -19.98384 -19.98176 -19.91682 -19.91290 -19.89233
 Alpha  occ. eigenvalues --  -10.96512 -10.85139 -10.83600 -10.82978 -10.82909
 Alpha  occ. eigenvalues --  -10.79828 -10.79002 -10.78831 -10.78280 -10.78189
 Alpha  occ. eigenvalues --  -10.78024  -1.45750  -1.37678  -1.36902  -1.33866
 Alpha  occ. eigenvalues --   -1.32393  -1.13318  -1.08816  -1.02482  -1.00896
 Alpha  occ. eigenvalues --   -0.95386  -0.94528  -0.90965  -0.87800  -0.87138
 Alpha  occ. eigenvalues --   -0.82741  -0.80113  -0.78148  -0.75916  -0.73683
 Alpha  occ. eigenvalues --   -0.72077  -0.71519  -0.70246  -0.68571  -0.67993
 Alpha  occ. eigenvalues --   -0.67637  -0.65945  -0.65024  -0.62749  -0.62463
 Alpha  occ. eigenvalues --   -0.62111  -0.61637  -0.60544  -0.59930  -0.58889
 Alpha  occ. eigenvalues --   -0.56479  -0.55965  -0.54318  -0.53933  -0.52205
 Alpha  occ. eigenvalues --   -0.52135  -0.46924  -0.40436  -0.37734
 Alpha virt. eigenvalues --   -0.20121  -0.12066  -0.08366  -0.07207  -0.06959
 Alpha virt. eigenvalues --   -0.06780  -0.05986  -0.05355  -0.04117  -0.03781
 Alpha virt. eigenvalues --   -0.03208  -0.02400  -0.02199  -0.02097  -0.01486

 Mulliken charges:
               1
     1  C   -0.135219
     2  C    0.404858
     3  C    0.104465
     4  C   -0.336916
     5  C   -0.077621
     6  C    0.250938
     7  O   -0.504820
     8  O   -0.401672
     9  C   -0.064033
    10  O   -0.494732
    11  C   -0.066889
    12  C    0.110232
    13  C   -0.634044
    14  C    0.935401
    15  O   -0.453022
    16  O   -0.501117
    17  H    0.167156
    18  H    0.153679
    19  H    0.436292
    20  H    0.175759
    21  H    0.145442
    22  H    0.145784
    23  H    0.175193
    24  H    0.152270
    25  H    0.152383
    26  H    0.188818
    27  H    0.176807
    28  H    0.396718
    29  H    0.397889
 Sum of Mulliken charges =   1.00000

 Dipole moment (field-independent basis, Debye):
    X=             10.5510    Y=             -0.2253    Z=             -0.0375  Tot=             10.5535
 Quadrupole moment (field-independent basis, Debye-Ang):
   XX=            -13.4991   YY=            -56.6094   ZZ=            -94.8121
   XY=            -11.5617   XZ=              0.2867   YZ=              1.6547

  Exact polarizability: 352.857  -8.521 166.475  -0.262  -0.267  81.453
 Approx polarizability: 381.363 -12.664 178.114  -0.571  -0.699 103.504

                      1                      2                      3
                      A                      A                      A
 Frequencies --     43.4663                55.7935                61.8687
 Red. masses --      6.0179                 5.0751                 3.3290
 Frc consts  --      0.0067                 0.0093                 0.0075
 IR Inten    --      0.6188                 0.3148                 9.5541

                      4                      5                      6
                      A                      A                      A
 Frequencies --     74.8230                97.8888               131.6605
 Red. masses --      5.1155                 3.6787                 5.9336
 Frc consts  --      0.0169                 0.0208                 0.0606
 IR Inten    --      0.5403                 0.0439                 0.9004

                      7                      8                      9
                      A                      A                      A
 Frequencies --    169.9035               175.3394               195.2770
 Red. masses --      4.0323                 3.7991                 1.6803
 Frc consts  --      0.0686                 0.0688                 0.0378
 IR Inten    --     10.3433                 2.3380                 4.0878

                     10                     11                     12
                      A                      A                      A
 Frequencies --    202.3567               245.6432               250.0285
 Red. masses --      3.6810                 1.1996                 4.8824
 Frc consts  --      0.0888                 0.0426                 0.1798
 IR Inten    --     12.1709                 4.0928                 4.1016

                     13                     14                     15
                      A                      A                      A
 Frequencies --    267.7241               297.1487               309.2092
 Red. masses --      1.6931                 1.8814                 4.9066
 Frc consts  --      0.0715                 0.0979                 0.2764
 IR Inten    --     28.8485               118.2386                26.4887

                     16                     17                     18
                      A                      A                      A
 Frequencies --    337.6807               362.6238               378.1878
 Red. masses --      1.7387                 4.4543                 4.3296
 Frc consts  --      0.1168                 0.3451                 0.3649
 IR Inten    --    218.7491                 2.4370                 0.9170

                     19                     20                     21
                      A                      A                      A
 Frequencies --    396.1060               413.5214               479.8911
 Red. masses --      3.1293                 1.2126                 6.5899
 Frc consts  --      0.2893                 0.1222                 0.8942
 IR Inten    --     25.7245               242.1881                 4.2451

                     22                     23                     24
                      A                      A                      A
 Frequencies --    499.9184               526.8577               527.2612
 Red. masses --      6.0928                 5.7489                 3.0573
 Frc consts  --      0.8971                 0.9402                 0.5008
 IR Inten    --      6.6068                 5.2444                19.1124

                     25                     26                     27
                      A                      A                      A
 Frequencies --    532.6397               583.0047               585.2090
 Red. masses --      5.0173                 2.0999                 3.5442
 Frc consts  --      0.8387                 0.4205                 0.7151
 IR Inten    --     23.3269                38.9765                 7.4703

                     28                     29                     30
                      A                      A                      A
 Frequencies --    604.3186               663.9632               679.1191
 Red. masses --      2.5068                 4.8835                 4.5038
 Frc consts  --      0.5394                 1.2684                 1.2238
 IR Inten    --     50.8577                 2.2461                 6.2097

                     31                     32                     33
                      A                      A                      A
 Frequencies --    712.4940               784.7864               813.0679
 Red. masses --      5.1489                 1.4426                 1.2470
 Frc consts  --      1.5400                 0.5235                 0.4857
 IR Inten    --     59.4987                 5.5629                27.1467

                     34                     35                     36
                      A                      A                      A
 Frequencies --    836.1768               839.7857               930.4678
 Red. masses --      5.0877                 1.5598                 5.4765
 Frc consts  --      2.0959                 0.6481                 2.7935
 IR Inten    --      4.0928                33.4276                 5.1740

                     37                     38                     39
                      A                      A                      A
 Frequencies --    975.9677               984.7790              1015.9146
 Red. masses --      1.3229                 4.3185                 4.6641
 Frc consts  --      0.7424                 2.4675                 2.8362
 IR Inten    --     73.6543               201.5522                27.8758

                     40                     41                     42
                      A                      A                      A
 Frequencies --   1062.4022              1147.1617              1166.1263
 Red. masses --      4.4466                 3.3105                 1.1659
 Frc consts  --      2.9570                 2.5668                 0.9341
 IR Inten    --      4.4581               323.2856               235.8377

                     43                     44                     45
                      A                      A                      A
 Frequencies --   1176.1114              1181.7580              1184.0175
 Red. masses --      1.4980                 1.2618                 1.2560
 Frc consts  --      1.2209                 1.0383                 1.0374
 IR Inten    --   1091.4191                 1.8950                 1.0632

                     46                     47                     48
                      A                      A                      A
 Frequencies --   1216.7249              1221.1187              1240.6941
 Red. masses --      1.4644                 1.3407                 1.8055
 Frc consts  --      1.2773                 1.1779                 1.6374
 IR Inten    --      1.6272                 3.5806                45.1469

                     49                     50                     51
                      A                      A                      A
 Frequencies --   1271.0286              1294.9111              1316.6553
 Red. masses --      1.9032                 1.8223                 1.5547
 Frc consts  --      1.8115                 1.8003                 1.5879
 IR Inten    --    381.4747                21.3542               319.0569

                     52                     53                     54
                      A                      A                      A
 Frequencies --   1339.8005              1354.7978              1397.6639
 Red. masses --      1.6889                 2.8061                 2.9908
 Frc consts  --      1.7862                 3.0346                 3.4423
 IR Inten    --      7.1921                60.6729               478.8167

                     55                     56                     57
                      A                      A                      A
 Frequencies --   1435.9912              1472.2089              1492.8162
 Red. masses --      4.5808                 3.9482                 1.2982
 Frc consts  --      5.5653                 5.0418                 1.7045
 IR Inten    --    899.7982               301.1017                31.2800

                     58                     59                     60
                      A                      A                      A
 Frequencies --   1504.0280              1519.3669              1521.6821
 Red. masses --      1.3154                 1.0474                 1.0478
 Frc consts  --      1.7532                 1.4246                 1.4295
 IR Inten    --     35.6858                12.6332                12.7309

                     61                     62                     63
                      A                      A                      A
 Frequencies --   1525.9075              1526.5195              1533.9515
 Red. masses --      1.1668                 1.0566                 3.7486
 Frc consts  --      1.6006                 1.4507                 5.1969
 IR Inten    --    235.6119                33.6041               306.8729

                     64                     65                     66
                      A                      A                      A
 Frequencies --   1545.3007              1613.2227              1627.7804
 Red. masses --      3.5441                 4.4394                 5.2813
 Frc consts  --      4.9863                 6.8070                 8.2448
 IR Inten    --    520.2774                93.5164               368.5867

                     67                     68                     69
                      A                      A                      A
 Frequencies --   1651.4087              1683.0741              3068.3737
 Red. masses --      4.3302                 5.0701                 1.0330
 Frc consts  --      6.9577                 8.4621                 5.7302
 IR Inten    --    636.2241              1031.7825                29.1352

                     70                     71                     72
                      A                      A                      A
 Frequencies --   3076.9322              3149.9551              3162.3511
 Red. masses --      1.0320                 1.1082                 1.1088
 Frc consts  --      5.7569                 6.4783                 6.5329
 IR Inten    --     22.0309                22.8986                17.9110

                     73                     74                     75
                      A                      A                      A
 Frequencies --   3208.2539              3223.8535              3226.8627
 Red. masses --      1.0900                 1.1024                 1.1037
 Frc consts  --      6.6104                 6.7505                 6.7709
 IR Inten    --      0.7288                 5.4777                 4.3224

                     76                     77                     78
                      A                      A                      A
 Frequencies --   3255.6889              3266.4225              3276.9997
 Red. masses --      1.0910                 1.0916                 1.0899
 Frc consts  --      6.8134                 6.8618                 6.8959
 IR Inten    --      1.4885                 3.1372                 0.0928

                     79                     80                     81
                      A                      A                      A
 Frequencies --   3726.5904              3790.0004              3799.3093
 Red. masses --      1.0652                 1.0679                 1.0662
 Frc consts  --      8.7156                 9.0373                 9.0675
 IR Inten    --    402.2441                84.0624               667.0437

 - Thermochemistry -
 -------------------
 Temperature   298.150 Kelvin.  Pressure   1.00000 Atm.
 Atom     1 has atomic number  6 and mass  12.00000

 Molecular mass:   225.07630 amu.
 Principal axes and moments of inertia in atomic units:
                           1         2         3
     Eigenvalues --  2543.612736590.298479104.49273
           X            0.99999   0.00357   0.00004
           Y           -0.00357   0.99999   0.00128
           Z           -0.00004  -0.00128   1.00000
 This molecule is an asymmetric top.
 Rotational symmetry number  1.
 Warning -- assumption of classical behavior for rotation
           may cause significant error
 Rotational temperatures (Kelvin)      0.03405     0.01314     0.00951
 Rotational constants (GHZ):           0.70952     0.27385     0.19823
 Zero-point vibrational energy     607091.0 (Joules/Mol)
                                  145.09824 (Kcal/Mol)
 Warning -- explicit consideration of  28 degrees of freedom as
           vibrations may cause significant error
 Vibrational temperatures:     62.54    80.27    89.02   107.65   140.84
          (Kelvin)            189.43   244.45   252.27   280.96   291.15
                              353.43   359.73   385.19   427.53   444.88
                              485.85   521.73   544.13   569.91   594.96
                              690.46   719.27   758.03   758.61   766.35
                              838.81   841.98   869.48   955.29   977.10
                             1025.12  1129.13  1169.82  1203.07  1208.26
                             1338.73  1404.20  1416.88  1461.67  1528.56
                             1650.51  1677.79  1692.16  1700.28  1703.53
                             1750.59  1756.92  1785.08  1828.72  1863.09
                             1894.37  1927.67  1949.25  2010.92  2066.07
                             2118.18  2147.83  2163.96  2186.03  2189.36
                             2195.44  2196.32  2207.01  2223.34  2321.06
                             2342.01  2376.01  2421.57  4414.70  4427.01
                             4532.08  4549.91  4615.96  4638.40  4642.73
                             4684.20  4699.65  4714.87  5361.73  5452.96
                             5466.35

 Zero-point correction=                           0.231229 (Hartree/Particle)
 Thermal correction to Energy=                    0.247684
 Thermal correction to Enthalpy=                  0.248628
 Thermal correction to Gibbs Free Energy=         0.186986
 Sum of electronic and zero-point Energies=           -801.892965
 Sum of electronic and thermal Energies=              -801.876510
 Sum of electronic and thermal Enthalpies=            -801.875566
 Sum of electronic and thermal Free Energies=         -801.937209

                     E (Thermal)             CV                S
                      KCal/Mol        Cal/Mol-Kelvin    Cal/Mol-Kelvin
 Total                  155.424             61.015            129.738
 Electronic               0.000              0.000              0.000
 Translational            0.889              2.981             42.136
 Rotational               0.889              2.981             33.389
 Vibrational            153.647             55.054             54.212
 Vibration     1          0.595              1.980              5.095
 Vibration     2          0.596              1.975              4.601
 Vibration     3          0.597              1.973              4.397
 Vibration     4          0.599              1.966              4.022
 Vibration     5          0.603              1.951              3.496
 Vibration     6          0.612              1.922              2.922
 Vibration     7          0.625              1.880              2.437
 Vibration     8          0.627              1.873              2.377
 Vibration     9          0.636              1.846              2.177
 Vibration    10          0.639              1.837              2.112
 Vibration    11          0.660              1.770              1.762
 Vibration    12          0.663              1.763              1.730
 Vibration    13          0.673              1.732              1.611
 Vibration    14          0.691              1.679              1.433
 Vibration    15          0.699              1.656              1.367
 Vibration    16          0.718              1.600              1.223
 Vibration    17          0.736              1.549              1.111
 Vibration    18          0.748              1.517              1.046
 Vibration    19          0.763              1.478              0.977
 Vibration    20          0.777              1.441              0.914
 Vibration    21          0.836              1.295              0.710
 Vibration    22          0.855              1.250              0.658
 Vibration    23          0.882              1.191              0.594
 Vibration    24          0.882              1.190              0.593
 Vibration    25          0.888              1.178              0.581
 Vibration    26          0.940              1.068              0.480
 Vibration    27          0.942              1.063              0.476
 Vibration    28          0.963              1.023              0.442

 Normal termination of Gaussian 09 at Wed Dec 18 18:24:14 2024.
