 Gaussian 09, Revision E.01,
 Gaussian 09:  ES64L-G09RevE.01 30-Nov-2015

 -----------------------------------------------------
 # opt freq B2PLYP/6-31+g(d,p) EmpiricalDispersion=GD3
 -----------------------------------------------------

 ----------
 [No Title]
 ----------
 Symbolic Z-matrix:
 Charge =  0 Multiplicity = 1

 SCF Done:  E(RB2PLYP) =  -800.986412543     A.U. after   16 cycles
 E2(B2PLYP) =    -0.7938724133D+00 E(B2PLYP) =    -0.80178028495628D+03
 SCF Done:  E(RB2PLYP) =  -800.985736349     A.U. after   13 cycles
 E2(B2PLYP) =    -0.7949157027D+00 E(B2PLYP) =    -0.80178065205167D+03
 SCF Done:  E(RB2PLYP) =  -800.985577031     A.U. after   11 cycles
 E2(B2PLYP) =    -0.7951063943D+00 E(B2PLYP) =    -0.80178068342571D+03
 SCF Done:  E(RB2PLYP) =  -800.985567232     A.U. after   10 cycles
 E2(B2PLYP) =    -0.7951194220D+00 E(B2PLYP) =    -0.80178068665373D+03
 SCF Done:  E(RB2PLYP) =  -800.985577422     A.U. after   10 cycles
 E2(B2PLYP) =    -0.7951096325D+00 E(B2PLYP) =    -0.80178068705488D+03
 SCF Done:  E(RB2PLYP) =  -800.985581887     A.U. after    9 cycles
 E2(B2PLYP) =    -0.7951049913D+00 E(B2PLYP) =    -0.80178068687876D+03
 SCF Done:  E(RB2PLYP) =  -800.985580387     A.U. after    9 cycles
 E2(B2PLYP) =    -0.7951067990D+00 E(B2PLYP) =    -0.80178068718618D+03
 Optimization completed.
    -- Stationary point found.
 Normal termination of Gaussian 09 at Wed Dec 18 00:49:47 2024.

 ----------------------------------------------------------------------
 #N Geom=AllCheck Guess=TCheck SCRF=Check GenChk RB2PLYP(FC)/6-31+G(d,p
 ) Freq
 ----------------------------------------------------------------------

 Structure from the checkpoint file:  "B2PLYPD3SA.chk"
 ----------
 [No Title]
 ----------
 Charge =  0 Multiplicity = 1

                         Standard orientation:
 ---------------------------------------------------------------------
 Center     Atomic      Atomic             Coordinates (Angstroms)
 Number     Number       Type             X           Y           Z
 ---------------------------------------------------------------------
      1          6           0       -2.388978    0.216519   -0.000007
      2          6           0       -1.918580   -1.105960   -0.000008
      3          6           0       -0.540508   -1.342673    0.000006
      4          6           0        0.379056   -0.277263    0.000019
      5          6           0       -0.096206    1.047939    0.000026
      6          6           0       -1.467249    1.279401    0.000011
      7          8           0       -3.726938    0.451671   -0.000018
      8          8           0       -2.882239   -2.068967   -0.000024
      9          6           0       -2.457287   -3.429073    0.000004
     10          8           0       -2.072304    2.513762    0.000018
     11          6           0       -1.234308    3.668802    0.000032
     12          6           0        1.800246   -0.600395    0.000024
     13          6           0        2.843062    0.258254   -0.000048
     14          6           0        4.217207   -0.259296   -0.000023
     15          8           0        5.130483    0.755652   -0.000078
     16          8           0        4.557146   -1.433729    0.000064
     17          1           0       -0.161879   -2.355787    0.000003
     18          1           0        0.598784    1.875042    0.000046
     19          1           0       -3.853143    1.413079   -0.000011
     20          1           0       -3.371460   -4.017923    0.000003
     21          1           0       -1.871360   -3.660827   -0.894592
     22          1           0       -1.871381   -3.660796    0.894623
     23          1           0       -0.606738    3.693749    0.895043
     24          1           0       -0.606723    3.693759   -0.894967
     25          1           0       -1.908743    4.521660    0.000032
     26          1           0        2.050472   -1.658631    0.000085
     27          1           0        2.727564    1.334519   -0.000123
     28          1           0        6.006687    0.337526   -0.000047
 ---------------------------------------------------------------------

 SCF Done:  E(RB2PLYP) =  -800.985580387     A.U. after    1 cycles
 E2(B2PLYP) =    -0.7951068022D+00 E(B2PLYP) =    -0.80178068718942D+03
 E2(B2PLYP) =    -0.7951068021D+00 E(B2PLYP) =    -0.80178068718931D+03

 The electronic state is 1-A.
 Alpha  occ. eigenvalues --  -19.80139 -19.79753 -19.78420 -19.78321 -19.73569
 Alpha  occ. eigenvalues --  -10.77420 -10.71068 -10.70602 -10.70470 -10.69955
 Alpha  occ. eigenvalues --  -10.68575 -10.66538 -10.65766 -10.64744 -10.64604
 Alpha  occ. eigenvalues --  -10.64322  -1.25247  -1.24158  -1.22162  -1.20065
 Alpha  occ. eigenvalues --   -1.15551  -0.99880  -0.93327  -0.88614  -0.87493
 Alpha  occ. eigenvalues --   -0.83183  -0.80991  -0.77511  -0.71304  -0.70666
 Alpha  occ. eigenvalues --   -0.65857  -0.63762  -0.62752  -0.59356  -0.58907
 Alpha  occ. eigenvalues --   -0.58015  -0.57004  -0.56505  -0.55409  -0.54807
 Alpha  occ. eigenvalues --   -0.53052  -0.52112  -0.50692  -0.49648  -0.49555
 Alpha  occ. eigenvalues --   -0.48601  -0.47268  -0.45470  -0.43696  -0.43425
 Alpha  occ. eigenvalues --   -0.43045  -0.42634  -0.41160  -0.40253  -0.38860
 Alpha  occ. eigenvalues --   -0.35412  -0.33008  -0.28116  -0.24965
 Alpha virt. eigenvalues --   -0.02471   0.02395   0.03232   0.03368   0.04008
 Alpha virt. eigenvalues --    0.04861   0.05405   0.05715   0.05937   0.07062
 Alpha virt. eigenvalues --    0.07265   0.08077   0.08213   0.08951   0.09168

 Mulliken charges:
               1
     1  C   -0.195370
     2  C    0.351518
     3  C    0.119384
     4  C   -0.403630
     5  C   -0.104394
     6  C    0.218021
     7  O   -0.575132
     8  O   -0.409401
     9  C   -0.068784
    10  O   -0.499371
    11  C   -0.070722
    12  C    0.117601
    13  C   -0.518029
    14  C    0.852164
    15  O   -0.510292
    16  O   -0.558740
    17  H    0.146588
    18  H    0.134785
    19  H    0.413741
    20  H    0.149524
    21  H    0.137500
    22  H    0.137501
    23  H    0.143725
    24  H    0.143725
    25  H    0.148619
    26  H    0.173115
    27  H    0.143459
    28  H    0.382896
 Sum of Mulliken charges =  -0.00000

 Dipole moment (field-independent basis, Debye):
    X=             -0.6193    Y=              2.5080    Z=             -0.0000  Tot=              2.5834
 Quadrupole moment (field-independent basis, Debye-Ang):
   XX=           -106.3631   YY=            -74.8641   ZZ=            -96.9329
   XY=              5.3976   XZ=             -0.0006   YZ=              0.0002

  Exact polarizability: 246.798   2.946 174.080  -0.000  -0.001  85.783
 Approx polarizability: 250.812   4.896 192.242  -0.000  -0.001 107.784

 ******    1 imaginary frequencies (negative Signs) ******

                      1                      2                      3
                      A                      A                      A
 Frequencies --    -17.8162                48.7599                62.1123
 Red. masses --      5.6272                 2.9414                 7.1357
 Frc consts  --      0.0011                 0.0041                 0.0162
 IR Inten    --      0.2393                 9.1694                 0.2438

                      4                      5                      6
                      A                      A                      A
 Frequencies --     72.5301                74.5784               109.5769
 Red. masses --      5.6901                 3.5292                 3.6185
 Frc consts  --      0.0176                 0.0116                 0.0256
 IR Inten    --      0.4173                 0.3093                 0.3260

                      7                      8                      9
                      A                      A                      A
 Frequencies --    144.8010               178.7449               203.3647
 Red. masses --      5.5666                 4.2526                 4.7553
 Frc consts  --      0.0688                 0.0801                 0.1159
 IR Inten    --      3.0842                 3.7528                 1.6062

                     10                     11                     12
                      A                      A                      A
 Frequencies --    203.4251               230.1903               251.9434
 Red. masses --      1.6576                 1.9002                 5.5439
 Frc consts  --      0.0404                 0.0593                 0.2073
 IR Inten    --      0.0319                 0.0106                 0.9506

                     13                     14                     15
                      A                      A                      A
 Frequencies --    271.9789               292.2519               298.4159
 Red. masses --      1.5946                 1.6198                 6.6943
 Frc consts  --      0.0695                 0.0815                 0.3512
 IR Inten    --      0.3581                 0.0013                 6.3417

                     16                     17                     18
                      A                      A                      A
 Frequencies --    367.6470               369.5117               378.1479
 Red. masses --      4.3430                 4.7912                 4.4944
 Frc consts  --      0.3459                 0.3854                 0.3787
 IR Inten    --      0.7747                 0.4929                 0.9127

                     19                     20                     21
                      A                      A                      A
 Frequencies --    438.0251               482.3126               500.8652
 Red. masses --      1.1486                 5.2954                 6.3746
 Frc consts  --      0.1298                 0.7258                 0.9422
 IR Inten    --     92.5694                 8.2929                 8.6878

                     22                     23                     24
                      A                      A                      A
 Frequencies --    512.2917               538.6873               550.7415
 Red. masses --      5.1614                 6.8686                 5.6871
 Frc consts  --      0.7981                 1.1743                 1.0163
 IR Inten    --     22.5823                 2.1347                 0.0149

                     25                     26                     27
                      A                      A                      A
 Frequencies --    578.2360               594.5028               600.0414
 Red. masses --      2.1339                 2.0330                 5.4096
 Frc consts  --      0.4204                 0.4233                 1.1476
 IR Inten    --     18.8508                82.8160                80.7798

                     28                     29                     30
                      A                      A                      A
 Frequencies --    669.2978               709.2396               731.6326
 Red. masses --      4.2613                 5.0263                 3.6338
 Frc consts  --      1.1247                 1.4897                 1.1460
 IR Inten    --      9.2812                 7.7663                27.4328

                     31                     32                     33
                      A                      A                      A
 Frequencies --    778.6385               802.7697               827.5466
 Red. masses --      1.2530                 1.3287                 5.6978
 Frc consts  --      0.4476                 0.5045                 2.2990
 IR Inten    --     20.5687                23.3321                 9.3157

                     34                     35                     36
                      A                      A                      A
 Frequencies --    845.2412               932.3992               979.2956
 Red. masses --      2.0940                 5.4818                 4.3889
 Frc consts  --      0.8814                 2.8079                 2.4799
 IR Inten    --     20.6259                 9.5430                11.5119

                     37                     38                     39
                      A                      A                      A
 Frequencies --   1007.1399              1016.2373              1080.4323
 Red. masses --      1.1322                 4.3561                 5.3743
 Frc consts  --      0.6767                 2.6506                 3.6963
 IR Inten    --     31.1557                 3.4716                 5.1498

                     40                     41                     42
                      A                      A                      A
 Frequencies --   1145.3362              1154.8679              1182.5461
 Red. masses --      2.4339                 3.9744                 1.2652
 Frc consts  --      1.8811                 3.1231                 1.0425
 IR Inten    --    720.0687               311.9437                 1.6515

                     43                     44                     45
                      A                      A                      A
 Frequencies --   1185.0455              1203.2492              1222.4856
 Red. masses --      1.2598                 1.8967                 1.3614
 Frc consts  --      1.0424                 1.6180                 1.1987
 IR Inten    --      0.9314                34.2724                 1.7924

                     46                     47                     48
                      A                      A                      A
 Frequencies --   1230.4367              1262.4528              1275.4291
 Red. masses --      1.5051                 1.8343                 1.6074
 Frc consts  --      1.3426                 1.7225                 1.5406
 IR Inten    --     20.3009               314.3480                40.0611

                     49                     50                     51
                      A                      A                      A
 Frequencies --   1302.1082              1317.4736              1356.8812
 Red. masses --      2.4111                 1.5494                 1.5316
 Frc consts  --      2.4086                 1.5845                 1.6614
 IR Inten    --     24.6829               169.2673                91.4295

                     52                     53                     54
                      A                      A                      A
 Frequencies --   1368.0863              1402.7242              1440.9495
 Red. masses --      2.2721                 4.3051                 3.3929
 Frc consts  --      2.5056                 4.9909                 4.1506
 IR Inten    --    168.3135                70.5027               110.5118

                     55                     56                     57
                      A                      A                      A
 Frequencies --   1477.9692              1503.4917              1508.5444
 Red. masses --      2.1639                 1.2658                 1.5505
 Frc consts  --      2.7849                 1.6859                 2.0789
 IR Inten    --    150.0416                10.9855                48.5698

                     58                     59                     60
                      A                      A                      A
 Frequencies --   1517.3054              1519.6429              1532.8053
 Red. masses --      1.0478                 1.0483                 1.0675
 Frc consts  --      1.4213                 1.4263                 1.4777
 IR Inten    --      8.6365                 8.5780                38.7015

                     61                     62                     63
                      A                      A                      A
 Frequencies --   1533.6988              1563.9954              1642.1686
 Red. masses --      1.0740                 4.1486                 5.7259
 Frc consts  --      1.4884                 5.9789                 9.0976
 IR Inten    --     46.9092               272.2255                71.5623

                     64                     65                     66
                      A                      A                      A
 Frequencies --   1657.0612              1691.4181              1773.0726
 Red. masses --      5.9771                 5.7123                 8.4106
 Frc consts  --      9.6697                 9.6285                15.5786
 IR Inten    --    211.0936               347.5480               314.2265

                     67                     68                     69
                      A                      A                      A
 Frequencies --   3054.6736              3063.3024              3127.8351
 Red. masses --      1.0333                 1.0324                 1.1069
 Frc consts  --      5.6810                 5.7078                 6.3805
 IR Inten    --     52.1595                41.2926                34.6372

                     70                     71                     72
                      A                      A                      A
 Frequencies --   3140.1666              3193.8738              3199.2321
 Red. masses --      1.1075                 1.0894                 1.1012
 Frc consts  --      6.4340                 6.5474                 6.6407
 IR Inten    --     28.5658                 1.3835                20.2051

                     73                     74                     75
                      A                      A                      A
 Frequencies --   3202.5485              3243.9050              3251.6613
 Red. masses --      1.1025                 1.0909                 1.0902
 Frc consts  --      6.6624                 6.7638                 6.7912
 IR Inten    --     17.3881                 4.8540                 3.1030

                     76                     77                     78
                      A                      A                      A
 Frequencies --   3264.5074              3783.7361              3786.1938
 Red. masses --      1.0896                 1.0645                 1.0652
 Frc consts  --      6.8418                 8.9791                 8.9965
 IR Inten    --      3.3910               137.9847               134.4012

 - Thermochemistry -
 -------------------
 Temperature   298.150 Kelvin.  Pressure   1.00000 Atm.
 Atom     1 has atomic number  6 and mass  12.00000

 Molecular mass:   224.06847 amu.
 Principal axes and moments of inertia in atomic units:
                           1         2         3
     Eigenvalues --  2515.079916608.275709100.30242
           X            0.99994   0.01075   0.00000
           Y           -0.01075   0.99994  -0.00000
           Z           -0.00000   0.00000   1.00000
 This molecule is an asymmetric top.
 Rotational symmetry number  1.
 Warning -- assumption of classical behavior for rotation
           may cause significant error
 Rotational temperatures (Kelvin)      0.03444     0.01311     0.00952
 Rotational constants (GHZ):           0.71757     0.27310     0.19832
    1 imaginary frequencies ignored.
 Zero-point vibrational energy     574305.8 (Joules/Mol)
                                  137.26238 (Kcal/Mol)
 Warning -- explicit consideration of  26 degrees of freedom as
           vibrations may cause significant error
 Vibrational temperatures:     70.15    89.37   104.35   107.30   157.66
          (Kelvin)            208.34   257.17   292.60   292.68   331.19
                              362.49   391.32   420.48   429.35   528.96
                              531.64   544.07   630.22   693.94   720.63
                              737.07   775.05   792.39   831.95   855.36
                              863.32   962.97  1020.44  1052.65  1120.29
                             1155.01  1190.65  1216.11  1341.51  1408.99
                             1449.05  1462.14  1554.50  1647.88  1661.60
                             1701.42  1705.01  1731.21  1758.88  1770.32
                             1816.39  1835.06  1873.44  1895.55  1952.25
                             1968.37  2018.20  2073.20  2126.47  2163.19
                             2170.46  2183.06  2186.42  2205.36  2206.65
                             2250.24  2362.71  2384.14  2433.57  2551.05
                             4394.99  4407.40  4500.25  4517.99  4595.27
                             4602.98  4607.75  4667.25  4678.41  4696.89
                             5443.95  5447.48

 Zero-point correction=                           0.218742 (Hartree/Particle)
 Thermal correction to Energy=                    0.234088
 Thermal correction to Enthalpy=                  0.235032
 Thermal correction to Gibbs Free Energy=         0.175727
 Sum of electronic and zero-point Energies=           -801.561946
 Sum of electronic and thermal Energies=              -801.546599
 Sum of electronic and thermal Enthalpies=            -801.545655
 Sum of electronic and thermal Free Energies=         -801.604961

                     E (Thermal)             CV                S
                      KCal/Mol        Cal/Mol-Kelvin    Cal/Mol-Kelvin
 Total                  146.892             57.203            124.819
 Electronic               0.000              0.000              0.000
 Translational            0.889              2.981             42.123
 Rotational               0.889              2.981             33.380
 Vibrational            145.115             51.241             49.315
 Vibration     1          0.595              1.978              4.867
 Vibration     2          0.597              1.972              4.389
 Vibration     3          0.599              1.967              4.083
 Vibration     4          0.599              1.966              4.029
 Vibration     5          0.606              1.942              3.276
 Vibration     6          0.616              1.908              2.739
 Vibration     7          0.629              1.868              2.341
 Vibration     8          0.639              1.835              2.102
 Vibration     9          0.639              1.835              2.102
 Vibration    10          0.652              1.795              1.877
 Vibration    11          0.664              1.760              1.717
 Vibration    12          0.675              1.725              1.584
 Vibration    13          0.688              1.688              1.461
 Vibration    14          0.692              1.677              1.426
 Vibration    15          0.740              1.539              1.090
 Vibration    16          0.742              1.535              1.082
 Vibration    17          0.748              1.517              1.047
 Vibration    18          0.798              1.387              0.833
 Vibration    19          0.839              1.289              0.704
 Vibration    20          0.856              1.248              0.656
 Vibration    21          0.867              1.223              0.628
 Vibration    22          0.894              1.164              0.568
 Vibration    23          0.906              1.138              0.543
 Vibration    24          0.935              1.078              0.489
 Vibration    25          0.952              1.043              0.459
 Vibration    26          0.958              1.032              0.450

 Optimization completed.
    -- Stationary point found.
 Normal termination of Gaussian 09 at Wed Dec 18 02:13:22 2024.
