 Gaussian 09, Revision E.01,
 Gaussian 09:  ES64L-G09RevE.01 30-Nov-2015

 ----------------------------------------------------
 # opt freq b3lyp/6-31+g(d,p) EmpiricalDispersion=GD3
 ----------------------------------------------------

 ----------
 [No Title]
 ----------
 Symbolic Z-matrix:
 Charge =  0 Multiplicity = 1

 SCF Done:  E(RB3LYP) =  -802.568303010     A.U. after   16 cycles
 SCF Done:  E(RB3LYP) =  -802.568581731     A.U. after   12 cycles
 SCF Done:  E(RB3LYP) =  -802.568622706     A.U. after   11 cycles
 SCF Done:  E(RB3LYP) =  -802.568626754     A.U. after   10 cycles
 SCF Done:  E(RB3LYP) =  -802.568626879     A.U. after    9 cycles
 SCF Done:  E(RB3LYP) =  -802.568626734     A.U. after    9 cycles
 SCF Done:  E(RB3LYP) =  -802.568627019     A.U. after    9 cycles
 Optimization completed.
    -- Stationary point found.
 Normal termination of Gaussian 09 at Tue Dec 17 13:59:29 2024.

 ----------------------------------------------------------------------
 #N Geom=AllCheck Guess=TCheck SCRF=Check GenChk RB3LYP/6-31+G(d,p) Fre
 q
 ----------------------------------------------------------------------

 Structure from the checkpoint file:  "b3lypD3SA.chk"
 ----------
 [No Title]
 ----------
 Charge =  0 Multiplicity = 1

                         Standard orientation:
 ---------------------------------------------------------------------
 Center     Atomic      Atomic             Coordinates (Angstroms)
 Number     Number       Type             X           Y           Z
 ---------------------------------------------------------------------
      1          6           0       -2.390650    0.216562    0.000004
      2          6           0       -1.919090   -1.107007   -0.000001
      3          6           0       -0.540984   -1.342162   -0.000001
      4          6           0        0.380697   -0.277611    0.000002
      5          6           0       -0.097820    1.047480    0.000008
      6          6           0       -1.467775    1.280648    0.000009
      7          8           0       -3.727153    0.451554    0.000005
      8          8           0       -2.879820   -2.071449   -0.000006
      9          6           0       -2.468670   -3.434107    0.000010
     10          8           0       -2.069861    2.515359    0.000016
     11          6           0       -1.243887    3.677173    0.000017
     12          6           0        1.801853   -0.599683   -0.000002
     13          6           0        2.847521    0.255255   -0.000024
     14          6           0        4.222498   -0.260458   -0.000025
     15          8           0        5.136771    0.753887   -0.000028
     16          8           0        4.564051   -1.432029    0.000007
     17          1           0       -0.163559   -2.357410   -0.000006
     18          1           0        0.597208    1.876411    0.000014
     19          1           0       -3.859649    1.412606    0.000011
     20          1           0       -3.389176   -4.018797    0.000016
     21          1           0       -1.883116   -3.675754   -0.896495
     22          1           0       -1.883117   -3.675734    0.896521
     23          1           0       -0.613339    3.711410    0.896856
     24          1           0       -0.613342    3.711413   -0.896824
     25          1           0       -1.925707    4.528068    0.000020
     26          1           0        2.050435   -1.660225    0.000013
     27          1           0        2.734093    1.333813   -0.000044
     28          1           0        6.015200    0.339076   -0.000015
 ---------------------------------------------------------------------

 SCF Done:  E(RB3LYP) =  -802.568627019     A.U. after    1 cycles

 The electronic state is 1-A.
 Alpha  occ. eigenvalues --  -19.21285 -19.20229 -19.19784 -19.19533 -19.14205
 Alpha  occ. eigenvalues --  -10.32363 -10.27060 -10.26688 -10.26591 -10.26430
 Alpha  occ. eigenvalues --  -10.25102 -10.22149 -10.21824 -10.20823 -10.20695
 Alpha  occ. eigenvalues --  -10.20468  -1.10529  -1.10185  -1.08293  -1.06504
 Alpha  occ. eigenvalues --   -1.01449  -0.87525  -0.81529  -0.77826  -0.76538
 Alpha  occ. eigenvalues --   -0.72823  -0.70987  -0.67779  -0.62429  -0.61736
 Alpha  occ. eigenvalues --   -0.57834  -0.55894  -0.54848  -0.51891  -0.51458
 Alpha  occ. eigenvalues --   -0.50009  -0.49434  -0.48047  -0.47977  -0.47377
 Alpha  occ. eigenvalues --   -0.46058  -0.44694  -0.43840  -0.42959  -0.42132
 Alpha  occ. eigenvalues --   -0.41882  -0.40073  -0.38587  -0.37222  -0.37131
 Alpha  occ. eigenvalues --   -0.36425  -0.36409  -0.34578  -0.34034  -0.32338
 Alpha  occ. eigenvalues --   -0.28251  -0.28137  -0.24209  -0.21570
 Alpha virt. eigenvalues --   -0.07485  -0.00705  -0.00556  -0.00356   0.00347
 Alpha virt. eigenvalues --    0.00828   0.01110   0.02418   0.03040   0.03811
 Alpha virt. eigenvalues --    0.03929   0.04870   0.05061   0.05954   0.06326

 Mulliken charges:
               1
     1  C   -0.183855
     2  C    0.573661
     3  C   -0.058244
     4  C   -0.488457
     5  C   -0.229562
     6  C    0.339330
     7  O   -0.534983
     8  O   -0.366373
     9  C   -0.104984
    10  O   -0.455754
    11  C   -0.108364
    12  C    0.193591
    13  C   -0.610002
    14  C    0.835398
    15  O   -0.469643
    16  O   -0.519693
    17  H    0.121972
    18  H    0.109597
    19  H    0.405104
    20  H    0.152968
    21  H    0.145981
    22  H    0.145981
    23  H    0.152143
    24  H    0.152143
    25  H    0.151969
    26  H    0.153131
    27  H    0.124561
    28  H    0.372384
 Sum of Mulliken charges =  -0.00000

 Dipole moment (field-independent basis, Debye):
    X=             -1.2150    Y=              2.5222    Z=              0.0000  Tot=              2.7996
 Quadrupole moment (field-independent basis, Debye-Ang):
   XX=           -104.9879   YY=            -75.0719   ZZ=            -96.6830
   XY=              5.1592   XZ=             -0.0002   YZ=              0.0000

  Exact polarizability: 256.448   2.651 176.511  -0.000  -0.000  86.239
 Approx polarizability: 388.090   4.653 260.225  -0.001  -0.000 129.353

                      1                      2                      3
                      A                      A                      A
 Frequencies --     32.5729                57.2484                66.2265
 Red. masses --      6.6361                 2.9995                 7.1518
 Frc consts  --      0.0041                 0.0058                 0.0185
 IR Inten    --      0.3579                 8.6288                 0.1378

                      4                      5                      6
                      A                      A                      A
 Frequencies --     73.0347                90.1897               136.9154
 Red. masses --      5.6800                 3.5918                 3.8779
 Frc consts  --      0.0179                 0.0172                 0.0428
 IR Inten    --      0.4301                 0.1079                 0.0000

                      7                      8                      9
                      A                      A                      A
 Frequencies --    157.9694               178.4803               203.8660
 Red. masses --      4.2165                 4.1976                 4.7673
 Frc consts  --      0.0620                 0.0788                 0.1167
 IR Inten    --      3.8939                 3.7483                 1.6284

                     10                     11                     12
                      A                      A                      A
 Frequencies --    209.6679               242.8442               251.4807
 Red. masses --      1.5665                 1.5527                 5.5953
 Frc consts  --      0.0406                 0.0540                 0.2085
 IR Inten    --      0.0245                 0.1137                 0.8675

                     13                     14                     15
                      A                      A                      A
 Frequencies --    281.8300               298.0254               303.0039
 Red. masses --      1.8241                 6.6498                 1.8039
 Frc consts  --      0.0854                 0.3480                 0.0976
 IR Inten    --      0.2898                 6.5561                 0.0311

                     16                     17                     18
                      A                      A                      A
 Frequencies --    367.9653               378.7398               389.5919
 Red. masses --      4.3858                 4.4840                 4.1850
 Frc consts  --      0.3499                 0.3790                 0.3743
 IR Inten    --      0.8123                 0.9929                 1.2182

                     19                     20                     21
                      A                      A                      A
 Frequencies --    469.7509               500.5689               512.7561
 Red. masses --      1.1197                 6.4500                 5.1636
 Frc consts  --      0.1456                 0.9522                 0.7999
 IR Inten    --     99.5184                 9.5275                22.9674

                     22                     23                     24
                      A                      A                      A
 Frequencies --    537.8132               565.8839               582.1714
 Red. masses --      6.8486                 1.8064                 4.0430
 Frc consts  --      1.1671                 0.3408                 0.8073
 IR Inten    --      2.3015                28.0611                 3.2797

                     25                     26                     27
                      A                      A                      A
 Frequencies --    600.9691               610.6031               670.6018
 Red. masses --      5.4189                 1.8408                 4.2866
 Frc consts  --      1.1531                 0.4044                 1.1358
 IR Inten    --     79.4716                76.1892                 9.2470

                     28                     29                     30
                      A                      A                      A
 Frequencies --    708.7535               728.1592               746.0139
 Red. masses --      4.9714                 7.5828                 3.9168
 Frc consts  --      1.4714                 2.3688                 1.2843
 IR Inten    --      8.8426                 0.2702                16.3854

                     31                     32                     33
                      A                      A                      A
 Frequencies --    826.4375               829.3576               843.5279
 Red. masses --      5.7130                 1.4395                 1.4999
 Frc consts  --      2.2990                 0.5834                 0.6288
 IR Inten    --     10.5065                26.4329                29.0810

                     34                     35                     36
                      A                      A                      A
 Frequencies --    879.7808               928.4628               975.8246
 Red. masses --      1.9798                 5.4088                 4.2822
 Frc consts  --      0.9028                 2.7471                 2.4025
 IR Inten    --     10.3276                10.0527                14.9900

                     37                     38                     39
                      A                      A                      A
 Frequencies --   1012.2378              1019.2914              1076.4741
 Red. masses --      4.4393                 1.1746                 5.3640
 Frc consts  --      2.6800                 0.7190                 3.6622
 IR Inten    --      4.1610                29.1218                 5.7859

                     40                     41                     42
                      A                      A                      A
 Frequencies --   1138.7364              1149.2149              1172.8801
 Red. masses --      2.5113                 3.7945                 1.2719
 Frc consts  --      1.9186                 2.9526                 1.0309
 IR Inten    --    778.6901               307.2398                 1.1644

                     43                     44                     45
                      A                      A                      A
 Frequencies --   1175.6986              1198.3363              1212.1819
 Red. masses --      1.2663                 1.8576                 1.3739
 Frc consts  --      1.0313                 1.5717                 1.1895
 IR Inten    --      0.6742                35.6014                 2.7018

                     46                     47                     48
                      A                      A                      A
 Frequencies --   1219.7448              1252.5907              1269.5136
 Red. masses --      1.5486                 1.9134                 1.5541
 Frc consts  --      1.3574                 1.7688                 1.4757
 IR Inten    --     25.8163               358.9403                17.9413

                     49                     50                     51
                      A                      A                      A
 Frequencies --   1296.9359              1307.9924              1349.5544
 Red. masses --      2.5871                 1.5681                 1.6295
 Frc consts  --      2.5639                 1.5806                 1.7485
 IR Inten    --     21.3947               119.9875               150.9868

                     52                     53                     54
                      A                      A                      A
 Frequencies --   1361.4349              1390.4864              1421.4787
 Red. masses --      2.1140                 4.0164                 3.1236
 Frc consts  --      2.3086                 4.5753                 3.7187
 IR Inten    --    150.0434                87.7418               101.7580

                     55                     56                     57
                      A                      A                      A
 Frequencies --   1467.1795              1489.0357              1495.3571
 Red. masses --      1.8398                 1.2709                 1.7349
 Frc consts  --      2.3334                 1.6602                 2.2856
 IR Inten    --    143.5063                11.7375                78.6779

                     58                     59                     60
                      A                      A                      A
 Frequencies --   1498.3996              1500.8913              1508.8815
 Red. masses --      1.0443                 1.0449                 1.0559
 Frc consts  --      1.3814                 1.3869                 1.4164
 IR Inten    --      9.1243                 9.1122                39.4902

                     61                     62                     63
                      A                      A                      A
 Frequencies --   1510.0025              1553.9732              1632.0777
 Red. masses --      1.0716                 4.4833                 5.4601
 Frc consts  --      1.4396                 6.3787                 8.5690
 IR Inten    --     41.9779               304.4285               102.2415

                     64                     65                     66
                      A                      A                      A
 Frequencies --   1645.2948              1681.7039              1777.6017
 Red. masses --      5.9106                 5.7626                 8.5068
 Frc consts  --      9.4269                 9.6021                15.8375
 IR Inten    --    206.7683               382.5451               341.7544

                     67                     68                     69
                      A                      A                      A
 Frequencies --   3012.0153              3021.2013              3076.5997
 Red. masses --      1.0345                 1.0335                 1.1065
 Frc consts  --      5.5297                 5.5580                 6.1708
 IR Inten    --     54.6030                43.0325                36.5432

                     70                     71                     72
                      A                      A                      A
 Frequencies --   3089.3382              3152.1732              3155.7354
 Red. masses --      1.1070                 1.0999                 1.1013
 Frc consts  --      6.2251                 6.4392                 6.4620
 IR Inten    --     30.2964                21.4136                18.5987

                     73                     74                     75
                      A                      A                      A
 Frequencies --   3163.3614              3210.7923              3223.5317
 Red. masses --      1.0893                 1.0904                 1.0899
 Frc consts  --      6.4222                 6.6228                 6.6729
 IR Inten    --      0.9747                 6.1388                 3.4591

                     76                     77                     78
                      A                      A                      A
 Frequencies --   3237.8721              3767.4205              3770.5980
 Red. masses --      1.0894                 1.0645                 1.0652
 Frc consts  --      6.7292                 8.9020                 8.9229
 IR Inten    --      3.5756               128.7261               138.0246

 - Thermochemistry -
 -------------------
 Temperature   298.150 Kelvin.  Pressure   1.00000 Atm.
 Atom     1 has atomic number  6 and mass  12.00000

 Molecular mass:   224.06847 amu.
 Principal axes and moments of inertia in atomic units:
                           1         2         3
     Eigenvalues --  2521.937926623.287329122.07571
           X            0.99994   0.01079   0.00000
           Y           -0.01079   0.99994  -0.00000
           Z           -0.00000   0.00000   1.00000
 This molecule is an asymmetric top.
 Rotational symmetry number  1.
 Warning -- assumption of classical behavior for rotation
           may cause significant error
 Rotational temperatures (Kelvin)      0.03434     0.01308     0.00949
 Rotational constants (GHZ):           0.71562     0.27248     0.19784
 Zero-point vibrational energy     573626.8 (Joules/Mol)
                                  137.10009 (Kcal/Mol)
 Warning -- explicit consideration of  26 degrees of freedom as
           vibrations may cause significant error
 Vibrational temperatures:     46.87    82.37    95.29   105.08   129.76
          (Kelvin)            196.99   227.28   256.79   293.32   301.66
                              349.40   361.82   405.49   428.79   435.95
                              529.42   544.92   560.54   675.87   720.21
                              737.74   773.79   814.18   837.61   864.66
                              878.52   964.85  1019.74  1047.66  1073.35
                             1189.06  1193.26  1213.65  1265.81  1335.85
                             1403.99  1456.38  1466.53  1548.80  1638.39
                             1653.46  1687.51  1691.57  1724.14  1744.06
                             1754.94  1802.20  1826.54  1866.00  1881.91
                             1941.71  1958.80  2000.60  2045.19  2110.94
                             2142.39  2151.48  2155.86  2159.45  2170.94
                             2172.55  2235.82  2348.19  2367.21  2419.59
                             2557.57  4333.61  4346.83  4426.54  4444.86
                             4535.27  4540.39  4551.37  4619.61  4637.94
                             4658.57  5420.47  5425.04

 Zero-point correction=                           0.218483 (Hartree/Particle)
 Thermal correction to Energy=                    0.234284
 Thermal correction to Enthalpy=                  0.235228
 Thermal correction to Gibbs Free Energy=         0.174391
 Sum of electronic and zero-point Energies=           -802.350144
 Sum of electronic and thermal Energies=              -802.334343
 Sum of electronic and thermal Enthalpies=            -802.333399
 Sum of electronic and thermal Free Energies=         -802.394236

                     E (Thermal)             CV                S
                      KCal/Mol        Cal/Mol-Kelvin    Cal/Mol-Kelvin
 Total                  147.015             58.250            128.043
 Electronic               0.000              0.000              0.000
 Translational            0.889              2.981             42.123
 Rotational               0.889              2.981             33.388
 Vibrational            145.238             52.288             52.532
 Vibration     1          0.594              1.983              5.666
 Vibration     2          0.596              1.975              4.550
 Vibration     3          0.598              1.970              4.262
 Vibration     4          0.599              1.967              4.070
 Vibration     5          0.602              1.956              3.656
 Vibration     6          0.614              1.916              2.847
 Vibration     7          0.621              1.894              2.574
 Vibration     8          0.629              1.869              2.344
 Vibration     9          0.640              1.834              2.098
 Vibration    10          0.642              1.826              2.047
 Vibration    11          0.659              1.775              1.782
 Vibration    12          0.663              1.760              1.720
 Vibration    13          0.681              1.707              1.523
 Vibration    14          0.691              1.677              1.428
 Vibration    15          0.694              1.668              1.400
 Vibration    16          0.741              1.538              1.088
 Vibration    17          0.749              1.515              1.044
 Vibration    18          0.758              1.492              1.002
 Vibration    19          0.827              1.317              0.738
 Vibration    20          0.856              1.249              0.657
 Vibration    21          0.868              1.222              0.627
 Vibration    22          0.893              1.166              0.570
 Vibration    23          0.922              1.105              0.512
 Vibration    24          0.939              1.070              0.481
 Vibration    25          0.959              1.030              0.448
 Vibration    26          0.970              1.009              0.432

 Optimization completed.
    -- Stationary point found.
 Normal termination of Gaussian 09 at Tue Dec 17 14:02:47 2024.
