 Gaussian 09, Revision E.01,
 Gaussian 09:  ES64L-G09RevE.01 30-Nov-2015

 ----------------------------------------------------
 # opt freq b3lyp/6-31+g(d,p) EmpiricalDispersion=GD3
 ----------------------------------------------------

 ----------
 [No Title]
 ----------
 Symbolic Z-matrix:
 Charge =  1 Multiplicity = 1

 SCF Done:  E(RB3LYP) =  -802.916799530     A.U. after   16 cycles
 SCF Done:  E(RB3LYP) =  -802.917090639     A.U. after   12 cycles
 SCF Done:  E(RB3LYP) =  -802.917122592     A.U. after   11 cycles
 SCF Done:  E(RB3LYP) =  -802.917126853     A.U. after   10 cycles
 SCF Done:  E(RB3LYP) =  -802.917128250     A.U. after   10 cycles
 SCF Done:  E(RB3LYP) =  -802.917129973     A.U. after   10 cycles
 SCF Done:  E(RB3LYP) =  -802.917130778     A.U. after   10 cycles
 SCF Done:  E(RB3LYP) =  -802.917131055     A.U. after    9 cycles
 Optimization completed.
    -- Stationary point found.
 Normal termination of Gaussian 09 at Tue Dec 17 14:22:17 2024.

 ----------------------------------------------------------------------
 #N Geom=AllCheck Guess=TCheck SCRF=Check GenChk RB3LYP/6-31+G(d,p) Fre
 q
 ----------------------------------------------------------------------

 Structure from the checkpoint file:  "b3lypD3SAYang.chk"
 ----------
 [No Title]
 ----------
 Charge =  1 Multiplicity = 1

                         Standard orientation:
 ---------------------------------------------------------------------
 Center     Atomic      Atomic             Coordinates (Angstroms)
 Number     Number       Type             X           Y           Z
 ---------------------------------------------------------------------
      1          6           0       -2.403657    0.207074    0.001154
      2          6           0       -1.933628   -1.133401   -0.006998
      3          6           0       -0.564854   -1.354724   -0.011622
      4          6           0        0.358771   -0.268614   -0.008703
      5          6           0       -0.126487    1.071282    0.002737
      6          6           0       -1.486483    1.297927    0.005853
      7          8           0       -3.712728    0.424831    0.005326
      8          8           0       -2.896508   -2.072334   -0.009421
      9          6           0       -2.513953   -3.452707   -0.018498
     10          8           0       -2.113907    2.500748    0.015117
     11          6           0       -1.326850    3.700994    0.019544
     12          6           0        1.737008   -0.578896   -0.013071
     13          6           0        2.807587    0.314639   -0.018037
     14          6           0        4.123183   -0.120459    0.001406
     15          8           0        5.091260    0.779854   -0.116228
     16          8           0        4.420336   -1.409068    0.145664
     17          1           0       -0.179706   -2.366935   -0.018010
     18          1           0        0.562401    1.904809    0.008643
     19          1           0       -3.882647    1.384181    0.011578
     20          1           0       -3.448420   -4.011894   -0.019222
     21          1           0       -1.939939   -3.693149   -0.921152
     22          1           0       -1.935046   -3.703696    0.878137
     23          1           0       -2.042666    4.521528    0.025438
     24          1           0       -0.702522    3.746858    0.918587
     25          1           0       -0.706607    3.756119   -0.881806
     26          1           0        1.989415   -1.637230   -0.011000
     27          1           0        2.674446    1.388633   -0.039116
     28          1           0        5.969082    0.469222    0.158000
     29          1           0        5.310749   -1.649389   -0.156328
 ---------------------------------------------------------------------

 SCF Done:  E(RB3LYP) =  -802.917131055     A.U. after    1 cycles

 The electronic state is 1-A.
 Alpha  occ. eigenvalues --  -19.38572 -19.38454 -19.33172 -19.32686 -19.30719
 Alpha  occ. eigenvalues --  -10.51004 -10.41043 -10.39777 -10.39123 -10.37805
 Alpha  occ. eigenvalues --  -10.36413 -10.35278 -10.35119 -10.34910 -10.34046
 Alpha  occ. eigenvalues --  -10.33831  -1.30673  -1.23134  -1.23078  -1.20167
 Alpha  occ. eigenvalues --   -1.18847  -1.00778  -0.96868  -0.91411  -0.89957
 Alpha  occ. eigenvalues --   -0.85226  -0.84457  -0.81320  -0.79296  -0.77971
 Alpha  occ. eigenvalues --   -0.73895  -0.71326  -0.70204  -0.67670  -0.65568
 Alpha  occ. eigenvalues --   -0.64160  -0.63524  -0.62921  -0.61118  -0.60588
 Alpha  occ. eigenvalues --   -0.60102  -0.58645  -0.57818  -0.55637  -0.55181
 Alpha  occ. eigenvalues --   -0.55029  -0.54482  -0.53359  -0.52700  -0.52190
 Alpha  occ. eigenvalues --   -0.50553  -0.49533  -0.47904  -0.47828  -0.46368
 Alpha  occ. eigenvalues --   -0.45628  -0.41945  -0.36522  -0.34601
 Alpha virt. eigenvalues --   -0.24532  -0.15837  -0.14087  -0.12492  -0.10456
 Alpha virt. eigenvalues --   -0.10194  -0.10064  -0.09164  -0.07680  -0.07204
 Alpha virt. eigenvalues --   -0.06691  -0.06420  -0.05804  -0.04979  -0.04869

 Mulliken charges:
               1
     1  C   -0.148429
     2  C    0.619011
     3  C   -0.078491
     4  C   -0.392801
     5  C   -0.209155
     6  C    0.363580
     7  O   -0.459456
     8  O   -0.355662
     9  C   -0.098194
    10  O   -0.448009
    11  C   -0.102714
    12  C    0.148482
    13  C   -0.659156
    14  C    0.913973
    15  O   -0.418018
    16  O   -0.463113
    17  H    0.141844
    18  H    0.126694
    19  H    0.426626
    20  H    0.179319
    21  H    0.155338
    22  H    0.155628
    23  H    0.178660
    24  H    0.161730
    25  H    0.161764
    26  H    0.167077
    27  H    0.156465
    28  H    0.387819
    29  H    0.389189
 Sum of Mulliken charges =   1.00000

 Dipole moment (field-independent basis, Debye):
    X=              9.5853    Y=             -0.0464    Z=             -0.0482  Tot=              9.5856
 Quadrupole moment (field-independent basis, Debye-Ang):
   XX=            -12.0148   YY=            -56.2424   ZZ=            -94.3744
   XY=            -10.9972   XZ=              0.1488   YZ=              1.5349

  Exact polarizability: 340.911  -7.419 168.510  -0.224  -0.154  81.683
 Approx polarizability: 682.531 -30.395 240.804  -0.864  -0.904 123.033

                      1                      2                      3
                      A                      A                      A
 Frequencies --     47.6697                58.6365                66.0832
 Red. masses --      6.2390                 5.2842                 3.2757
 Frc consts  --      0.0084                 0.0107                 0.0084
 IR Inten    --      0.5981                 0.6056                 8.7611

                      4                      5                      6
                      A                      A                      A
 Frequencies --     74.9766               107.7139               141.9753
 Red. masses --      5.1015                 3.6824                 5.7627
 Frc consts  --      0.0169                 0.0252                 0.0684
 IR Inten    --      0.5827                 0.0954                 1.0317

                      7                      8                      9
                      A                      A                      A
 Frequencies --    174.6111               181.2668               198.9880
 Red. masses --      3.8992                 3.3729                 1.8641
 Frc consts  --      0.0700                 0.0653                 0.0435
 IR Inten    --      3.2854                12.3204                 8.6008

                     10                     11                     12
                      A                      A                      A
 Frequencies --    203.3311               249.3419               250.5133
 Red. masses --      2.8118                 3.6249                 1.3427
 Frc consts  --      0.0685                 0.1328                 0.0496
 IR Inten    --      7.9314                 0.2445                19.8423

                     13                     14                     15
                      A                      A                      A
 Frequencies --    270.4816               295.3644               308.4672
 Red. masses --      1.6013                 1.5993                 4.5072
 Frc consts  --      0.0690                 0.0822                 0.2527
 IR Inten    --     71.2759               116.2415                43.6473

                     16                     17                     18
                      A                      A                      A
 Frequencies --    339.7096               362.8895               378.6577
 Red. masses --      2.3231                 4.4796                 4.3547
 Frc consts  --      0.1580                 0.3476                 0.3679
 IR Inten    --     82.7143                 2.2310                 0.7793

                     19                     20                     21
                      A                      A                      A
 Frequencies --    400.9344               413.3511               499.0278
 Red. masses --      1.2217                 3.0022                 6.2096
 Frc consts  --      0.1157                 0.3022                 0.9111
 IR Inten    --    233.3965                21.5106                 7.6543

                     22                     23                     24
                      A                      A                      A
 Frequencies --    526.1381               533.0417               554.5427
 Red. masses --      6.7239                 5.1029                 2.3193
 Frc consts  --      1.0967                 0.8543                 0.4202
 IR Inten    --      1.2698                24.1303                27.5481

                     25                     26                     27
                      A                      A                      A
 Frequencies --    582.5987               587.7188               606.3828
 Red. masses --      3.6480                 3.7584                 1.4358
 Frc consts  --      0.7295                 0.7649                 0.3111
 IR Inten    --     11.9546                 7.9792                74.3465

                     28                     29                     30
                      A                      A                      A
 Frequencies --    670.7294               684.2791               712.0436
 Red. masses --      4.5603                 4.8446                 5.1026
 Frc consts  --      1.2088                 1.3365                 1.5242
 IR Inten    --      1.1875                 8.0625                55.0008

                     31                     32                     33
                      A                      A                      A
 Frequencies --    728.3657               834.0147               836.0664
 Red. masses --      9.7183                 1.5595                 5.5553
 Frc consts  --      3.0377                 0.6391                 2.2879
 IR Inten    --      0.0800                 4.9981                 2.3969

                     34                     35                     36
                      A                      A                      A
 Frequencies --    850.9482               868.3330               926.4081
 Red. masses --      1.3507                 1.5196                 5.3986
 Frc consts  --      0.5763                 0.6751                 2.7299
 IR Inten    --     38.2798                22.8543                 4.9666

                     37                     38                     39
                      A                      A                      A
 Frequencies --    982.7039               993.1012              1012.3086
 Red. masses --      4.9931                 1.3426                 4.8016
 Frc consts  --      2.8410                 0.7802                 2.8991
 IR Inten    --    220.1218                23.9426                26.4517

                     40                     41                     42
                      A                      A                      A
 Frequencies --   1059.5223              1141.1456              1155.0089
 Red. masses --      4.3617                 3.1135                 1.1537
 Frc consts  --      2.8849                 2.3888                 0.9068
 IR Inten    --      3.0990               333.6346               189.0966

                     43                     44                     45
                      A                      A                      A
 Frequencies --   1165.6428              1171.6881              1174.3024
 Red. masses --      1.5353                 1.2682                 1.2622
 Frc consts  --      1.2291                 1.0258                 1.0255
 IR Inten    --   1051.0382                 1.2919                 0.7711

                     46                     47                     48
                      A                      A                      A
 Frequencies --   1208.3989              1210.5459              1232.6348
 Red. masses --      1.4355                 1.3486                 1.8984
 Frc consts  --      1.2350                 1.1644                 1.6995
 IR Inten    --      4.5606                 4.6131                39.5347

                     49                     50                     51
                      A                      A                      A
 Frequencies --   1261.1972              1287.5620              1307.9910
 Red. masses --      2.0039                 1.7675                 1.5831
 Frc consts  --      1.8779                 1.7264                 1.5958
 IR Inten    --    402.2562                38.4916               234.5769

                     52                     53                     54
                      A                      A                      A
 Frequencies --   1334.8810              1349.3256              1389.7563
 Red. masses --      1.6487                 3.1640                 2.8723
 Frc consts  --      1.7309                 3.3941                 3.2685
 IR Inten    --      4.5613                64.3668               403.4632

                     55                     56                     57
                      A                      A                      A
 Frequencies --   1419.1620              1462.1585              1477.0566
 Red. masses --      4.5479                 3.8413                 1.2927
 Frc consts  --      5.3966                 4.8385                 1.6617
 IR Inten    --    831.2862               337.4023                30.8346

                     58                     59                     60
                      A                      A                      A
 Frequencies --   1489.0316              1500.9737              1502.5648
 Red. masses --      1.3230                 1.0441                 1.0573
 Frc consts  --      1.7282                 1.3859                 1.4064
 IR Inten    --     32.6467                13.0808                37.7006

                     61                     62                     63
                      A                      A                      A
 Frequencies --   1502.9675              1503.2201              1515.9409
 Red. masses --      1.0992                 1.0452                 3.7429
 Frc consts  --      1.4630                 1.3916                 5.0678
 IR Inten    --    134.7806                15.1477               333.6452

                     64                     65                     66
                      A                      A                      A
 Frequencies --   1534.5801              1602.2012              1617.3646
 Red. masses --      4.1896                 4.2393                 5.2722
 Frc consts  --      5.8130                 6.4117                 8.1256
 IR Inten    --    530.7636                81.2026               376.4582

                     67                     68                     69
                      A                      A                      A
 Frequencies --   1633.3381              1669.6209              3026.6469
 Red. masses --      4.1392                 5.0635                 1.0341
 Frc consts  --      6.5061                 8.3164                 5.5815
 IR Inten    --    561.4153               826.5293                30.2985

                     70                     71                     72
                      A                      A                      A
 Frequencies --   3035.7824              3099.9298              3112.7652
 Red. masses --      1.0331                 1.1077                 1.1083
 Frc consts  --      5.6098                 6.2718                 6.3273
 IR Inten    --     23.0044                24.0866                19.0032

                     73                     74                     75
                      A                      A                      A
 Frequencies --   3177.2382              3180.4341              3181.7195
 Red. masses --      1.1012                 1.1025                 1.0899
 Frc consts  --      6.5494                 6.5706                 6.5010
 IR Inten    --      5.8643                 4.6444                 0.8920

                     76                     77                     78
                      A                      A                      A
 Frequencies --   3230.2508              3237.9284              3249.2622
 Red. masses --      1.0908                 1.0910                 1.0896
 Frc consts  --      6.7060                 6.7392                 6.7775
 IR Inten    --      1.6698                 2.4949                 0.2733

                     79                     80                     81
                      A                      A                      A
 Frequencies --   3715.7592              3772.0229              3781.5236
 Red. masses --      1.0652                 1.0678                 1.0661
 Frc consts  --      8.6653                 8.9516                 8.9825
 IR Inten    --    354.4112                67.0037               615.8475

 - Thermochemistry -
 -------------------
 Temperature   298.150 Kelvin.  Pressure   1.00000 Atm.
 Atom     1 has atomic number  6 and mass  12.00000

 Molecular mass:   225.07630 amu.
 Principal axes and moments of inertia in atomic units:
                           1         2         3
     Eigenvalues --  2550.427446610.268909132.85848
           X            0.99999   0.00371   0.00002
           Y           -0.00371   0.99999   0.00118
           Z           -0.00001  -0.00118   1.00000
 This molecule is an asymmetric top.
 Rotational symmetry number  1.
 Warning -- assumption of classical behavior for rotation
           may cause significant error
 Rotational temperatures (Kelvin)      0.03396     0.01310     0.00948
 Rotational constants (GHZ):           0.70762     0.27302     0.19761
 Zero-point vibrational energy     605279.1 (Joules/Mol)
                                  144.66517 (Kcal/Mol)
 Warning -- explicit consideration of  27 degrees of freedom as
           vibrations may cause significant error
 Vibrational temperatures:     68.59    84.36    95.08   107.87   154.98
          (Kelvin)            204.27   251.23   260.80   286.30   292.55
                              358.75   360.43   389.16   424.96   443.81
                              488.77   522.12   544.80   576.85   594.72
                              717.99   756.99   766.93   797.86   838.23
                              845.60   872.45   965.03   984.52  1024.47
                             1047.95  1199.96  1202.91  1224.32  1249.34
                             1332.89  1413.89  1428.85  1456.48  1524.41
                             1641.85  1661.80  1677.10  1685.80  1689.56
                             1738.61  1741.70  1773.48  1814.58  1852.51
                             1881.90  1920.59  1941.38  1999.55  2041.86
                             2103.72  2125.15  2142.38  2159.56  2161.85
                             2162.43  2162.80  2181.10  2207.92  2305.21
                             2327.02  2350.01  2402.21  4354.66  4367.81
                             4460.10  4478.57  4571.33  4575.93  4577.78
                             4647.60  4658.65  4674.96  5346.14  5427.09
                             5440.76

 Zero-point correction=                           0.230539 (Hartree/Particle)
 Thermal correction to Energy=                    0.246712
 Thermal correction to Enthalpy=                  0.247657
 Thermal correction to Gibbs Free Energy=         0.186741
 Sum of electronic and zero-point Energies=           -802.686592
 Sum of electronic and thermal Energies=              -802.670419
 Sum of electronic and thermal Enthalpies=            -802.669475
 Sum of electronic and thermal Free Energies=         -802.730390

                     E (Thermal)             CV                S
                      KCal/Mol        Cal/Mol-Kelvin    Cal/Mol-Kelvin
 Total                  154.814             60.280            128.208
 Electronic               0.000              0.000              0.000
 Translational            0.889              2.981             42.136
 Rotational               0.889              2.981             33.398
 Vibrational            153.037             54.318             52.674
 Vibration     1          0.595              1.978              4.912
 Vibration     2          0.596              1.974              4.503
 Vibration     3          0.597              1.970              4.267
 Vibration     4          0.599              1.966              4.018
 Vibration     5          0.606              1.943              3.310
 Vibration     6          0.615              1.911              2.777
 Vibration     7          0.627              1.874              2.385
 Vibration     8          0.630              1.865              2.315
 Vibration     9          0.637              1.841              2.142
 Vibration    10          0.639              1.835              2.103
 Vibration    11          0.662              1.764              1.735
 Vibration    12          0.663              1.762              1.727
 Vibration    13          0.674              1.728              1.593
 Vibration    14          0.690              1.682              1.443
 Vibration    15          0.698              1.658              1.371
 Vibration    16          0.720              1.596              1.214
 Vibration    17          0.737              1.549              1.110
 Vibration    18          0.749              1.516              1.045
 Vibration    19          0.767              1.468              0.959
 Vibration    20          0.777              1.441              0.915
 Vibration    21          0.854              1.252              0.661
 Vibration    22          0.881              1.192              0.596
 Vibration    23          0.888              1.177              0.580
 Vibration    24          0.910              1.130              0.535
 Vibration    25          0.939              1.069              0.481
 Vibration    26          0.945              1.058              0.471
 Vibration    27          0.965              1.018              0.439

 Optimization completed.
    -- Stationary point found.
 Normal termination of Gaussian 09 at Tue Dec 17 14:25:25 2024.
