 Gaussian 09, Revision E.01,
 Gaussian 09:  ES64L-G09RevE.01 30-Nov-2015

 -----------------------------------------------------
 # opt freq b3pw91/6-31+g(d,p) EmpiricalDispersion=GD3
 -----------------------------------------------------

 ----------
 [No Title]
 ----------
 Symbolic Z-matrix:
 Charge =  0 Multiplicity = 1

 SCF Done:  E(RB3PW91) =  -802.256685641     A.U. after   16 cycles
 SCF Done:  E(RB3PW91) =  -802.256698211     A.U. after   11 cycles
 SCF Done:  E(RB3PW91) =  -802.256698591     A.U. after    9 cycles
 SCF Done:  E(RB3PW91) =  -802.256698705     A.U. after    8 cycles
 Optimization completed.
    -- Stationary point found.
 Normal termination of Gaussian 09 at Tue Dec 17 22:22:21 2024.

 ----------------------------------------------------------------------
 #N Geom=AllCheck Guess=TCheck SCRF=Check GenChk RB3PW91/6-31+G(d,p) Fr
 eq
 ----------------------------------------------------------------------

 Structure from the checkpoint file:  "B3PW91D3SA.chk"
 ----------
 [No Title]
 ----------
 Charge =  0 Multiplicity = 1

                         Standard orientation:
 ---------------------------------------------------------------------
 Center     Atomic      Atomic             Coordinates (Angstroms)
 Number     Number       Type             X           Y           Z
 ---------------------------------------------------------------------
      1          6           0       -2.387102    0.212195   -0.000024
      2          6           0       -1.913143   -1.108388   -0.000016
      3          6           0       -0.536730   -1.338728    0.000020
      4          6           0        0.380405   -0.273673    0.000046
      5          6           0       -0.099771    1.047941    0.000042
      6          6           0       -1.467881    1.276739    0.000007
      7          8           0       -3.717357    0.445691   -0.000059
      8          8           0       -2.868047   -2.070391   -0.000047
      9          6           0       -2.450642   -3.423562   -0.000003
     10          8           0       -2.073332    2.502972    0.000002
     11          6           0       -1.253187    3.659846    0.000026
     12          6           0        1.799037   -0.591776    0.000075
     13          6           0        2.842095    0.263981    0.000066
     14          6           0        4.213783   -0.253855    0.000121
     15          8           0        5.126219    0.753803   -0.000149
     16          8           0        4.549873   -1.424993   -0.000021
     17          1           0       -0.155927   -2.353630    0.000024
     18          1           0        0.593679    1.879250    0.000071
     19          1           0       -3.844273    1.406119   -0.000046
     20          1           0       -3.366716   -4.015551   -0.000012
     21          1           0       -1.864174   -3.664118   -0.896635
     22          1           0       -1.864218   -3.664074    0.896669
     23          1           0       -0.622480    3.697260    0.897049
     24          1           0       -0.622434    3.697265   -0.896964
     25          1           0       -1.934730    4.511196    0.000011
     26          1           0        2.052311   -1.651982    0.000114
     27          1           0        2.728657    1.343081    0.000022
     28          1           0        6.000267    0.334211   -0.000273
 ---------------------------------------------------------------------

 SCF Done:  E(RB3PW91) =  -802.256698705     A.U. after    1 cycles

 The electronic state is 1-A.
 Alpha  occ. eigenvalues --  -19.20524 -19.19147 -19.18795 -19.18715 -19.12951
 Alpha  occ. eigenvalues --  -10.30716 -10.25677 -10.25279 -10.25193 -10.24909
 Alpha  occ. eigenvalues --  -10.23561 -10.20768 -10.20521 -10.19484 -10.19350
 Alpha  occ. eigenvalues --  -10.19049  -1.11106  -1.11024  -1.09099  -1.07213
 Alpha  occ. eigenvalues --   -1.01769  -0.87987  -0.81882  -0.78261  -0.76888
 Alpha  occ. eigenvalues --   -0.73141  -0.71269  -0.68028  -0.62705  -0.61943
 Alpha  occ. eigenvalues --   -0.58192  -0.56126  -0.55087  -0.52134  -0.51685
 Alpha  occ. eigenvalues --   -0.50135  -0.49720  -0.48227  -0.48208  -0.47462
 Alpha  occ. eigenvalues --   -0.46166  -0.44962  -0.43915  -0.43166  -0.42152
 Alpha  occ. eigenvalues --   -0.41818  -0.40029  -0.38508  -0.37370  -0.37134
 Alpha  occ. eigenvalues --   -0.36498  -0.36446  -0.34615  -0.34161  -0.32397
 Alpha  occ. eigenvalues --   -0.28244  -0.28177  -0.24307  -0.21612
 Alpha virt. eigenvalues --   -0.07450  -0.00427   0.00488   0.00699   0.01408
 Alpha virt. eigenvalues --    0.01520   0.02020   0.03478   0.04179   0.04900
 Alpha virt. eigenvalues --    0.05006   0.05972   0.06194   0.07078   0.07400

 Mulliken charges:
               1
     1  C   -0.348161
     2  C    0.355171
     3  C    0.118966
     4  C   -0.466451
     5  C   -0.106240
     6  C    0.241908
     7  O   -0.513358
     8  O   -0.316193
     9  C   -0.146676
    10  O   -0.409489
    11  C   -0.153933
    12  C    0.113950
    13  C   -0.537549
    14  C    0.753103
    15  O   -0.450372
    16  O   -0.501975
    17  H    0.147615
    18  H    0.134150
    19  H    0.407174
    20  H    0.168115
    21  H    0.158625
    22  H    0.158625
    23  H    0.164726
    24  H    0.164726
    25  H    0.167192
    26  H    0.173555
    27  H    0.147720
    28  H    0.375076
 Sum of Mulliken charges =  -0.00000

 Dipole moment (field-independent basis, Debye):
    X=             -1.2129    Y=              2.5454    Z=              0.0001  Tot=              2.8196
 Quadrupole moment (field-independent basis, Debye-Ang):
   XX=           -102.7163   YY=            -73.8427   ZZ=            -95.9741
   XY=              4.9870   XZ=             -0.0007   YZ=             -0.0001

  Exact polarizability: 253.469   2.557 174.168   0.003  -0.002  84.481
 Approx polarizability: 384.940   4.619 256.759   0.002   0.001 124.639

                      1                      2                      3
                      A                      A                      A
 Frequencies --     30.0956                57.1533                65.5185
 Red. masses --      6.5480                 2.9894                 7.1382
 Frc consts  --      0.0035                 0.0058                 0.0181
 IR Inten    --      0.3983                 8.5845                 0.1068

                      4                      5                      6
                      A                      A                      A
 Frequencies --     71.8261                91.0738               134.9609
 Red. masses --      5.6830                 3.5736                 3.7350
 Frc consts  --      0.0173                 0.0175                 0.0401
 IR Inten    --      0.3988                 0.1050                 0.0250

                      7                      8                      9
                      A                      A                      A
 Frequencies --    157.8961               177.9406               202.5998
 Red. masses --      4.4407                 4.1869                 4.7323
 Frc consts  --      0.0652                 0.0781                 0.1144
 IR Inten    --      4.0881                 3.7543                 1.7401

                     10                     11                     12
                      A                      A                      A
 Frequencies --    209.6152               244.4478               250.1022
 Red. masses --      1.5911                 1.5777                 5.5312
 Frc consts  --      0.0412                 0.0555                 0.2038
 IR Inten    --      0.0336                 0.0629                 0.9532

                     13                     14                     15
                      A                      A                      A
 Frequencies --    282.5068               296.4417               304.1382
 Red. masses --      1.7906                 6.6907                 1.7507
 Frc consts  --      0.0842                 0.3464                 0.0954
 IR Inten    --      0.2377                 6.6952                 0.0182

                     16                     17                     18
                      A                      A                      A
 Frequencies --    367.9793               378.5160               391.1096
 Red. masses --      4.3393                 4.5112                 4.1825
 Frc consts  --      0.3462                 0.3808                 0.3770
 IR Inten    --      0.7910                 1.1025                 1.4187

                     19                     20                     21
                      A                      A                      A
 Frequencies --    478.4703               500.0754               512.1994
 Red. masses --      1.1213                 6.4193                 5.0824
 Frc consts  --      0.1512                 0.9458                 0.7856
 IR Inten    --     98.3612                 9.3311                23.1113

                     22                     23                     24
                      A                      A                      A
 Frequencies --    536.8492               567.3531               583.8859
 Red. masses --      6.8391                 1.9414                 3.9761
 Frc consts  --      1.1613                 0.3682                 0.7987
 IR Inten    --      1.9543                22.5871                 3.6206

                     25                     26                     27
                      A                      A                      A
 Frequencies --    603.6510               613.8602               671.5507
 Red. masses --      5.3432                 1.7353                 4.2164
 Frc consts  --      1.1472                 0.3853                 1.1203
 IR Inten    --     80.8002                80.8705                10.6038

                     28                     29                     30
                      A                      A                      A
 Frequencies --    712.1565               729.3464               749.2569
 Red. masses --      4.9121                 8.0047                 3.6701
 Frc consts  --      1.4678                 2.5088                 1.2139
 IR Inten    --      6.6829                 0.0676                15.4878

                     31                     32                     33
                      A                      A                      A
 Frequencies --    823.7678               829.8035               838.9993
 Red. masses --      1.4423                 5.6202                 1.5057
 Frc consts  --      0.5766                 2.2801                 0.6245
 IR Inten    --     27.8820                10.3301                29.7242

                     34                     35                     36
                      A                      A                      A
 Frequencies --    877.7179               942.5157               982.5962
 Red. masses --      2.0243                 5.1215                 3.8935
 Frc consts  --      0.9188                 2.6806                 2.2148
 IR Inten    --     12.4974                13.7466                18.5275

                     37                     38                     39
                      A                      A                      A
 Frequencies --   1016.6040              1021.3097              1093.0475
 Red. masses --      1.1737                 4.1583                 5.1298
 Frc consts  --      0.7147                 2.5555                 3.6110
 IR Inten    --     31.0944                 3.3271                 3.7914

                     40                     41                     42
                      A                      A                      A
 Frequencies --   1150.1432              1164.7243              1171.4440
 Red. masses --      2.3744                 3.2538                 1.2774
 Frc consts  --      1.8505                 2.6007                 1.0328
 IR Inten    --    726.9397               244.9342                 0.8560

                     43                     44                     45
                      A                      A                      A
 Frequencies --   1174.4467              1200.9472              1211.0097
 Red. masses --      1.2715                 1.6326                 1.3713
 Frc consts  --      1.0333                 1.3873                 1.1849
 IR Inten    --      0.4780                37.3136                 2.3592

                     46                     47                     48
                      A                      A                      A
 Frequencies --   1220.1603              1260.4038              1268.6034
 Red. masses --      1.5644                 1.9679                 1.4538
 Frc consts  --      1.3723                 1.8419                 1.3785
 IR Inten    --     20.4130               323.8415                47.8036

                     49                     50                     51
                      A                      A                      A
 Frequencies --   1305.9298              1307.1261              1346.7581
 Red. masses --      1.5404                 3.1344                 1.4357
 Frc consts  --      1.5478                 3.1552                 1.5342
 IR Inten    --    146.6044                31.4561                50.0247

                     52                     53                     54
                      A                      A                      A
 Frequencies --   1369.2928              1407.0291              1435.4924
 Red. masses --      2.5922                 4.2711                 3.3400
 Frc consts  --      2.8636                 4.9819                 4.0551
 IR Inten    --    273.8147                75.9603               104.4084

                     55                     56                     57
                      A                      A                      A
 Frequencies --   1468.5047              1487.0529              1494.9139
 Red. masses --      1.4549                 1.3057                 1.0426
 Frc consts  --      1.8486                 1.7011                 1.3727
 IR Inten    --     77.3350                10.0327                10.0842

                     58                     59                     60
                      A                      A                      A
 Frequencies --   1497.4879              1502.5773              1505.6161
 Red. masses --      1.0432                 2.4052                 1.0916
 Frc consts  --      1.3784                 3.1995                 1.4579
 IR Inten    --     10.0437               114.1803                74.7064

                     61                     62                     63
                      A                      A                      A
 Frequencies --   1507.1311              1566.9118              1647.2316
 Red. masses --      1.0806                 5.0082                 6.1304
 Frc consts  --      1.4461                 7.2448                 9.8005
 IR Inten    --     46.2147               355.0228               112.4401

                     64                     65                     66
                      A                      A                      A
 Frequencies --   1660.0823              1694.4854              1797.1988
 Red. masses --      6.3070                 6.1180                 8.8757
 Frc consts  --     10.2407                10.3499                16.8905
 IR Inten    --    221.0564               357.4485               350.8771

                     67                     68                     69
                      A                      A                      A
 Frequencies --   3018.1944              3027.3487              3089.5775
 Red. masses --      1.0346                 1.0336                 1.1064
 Frc consts  --      5.5527                 5.5814                 6.2223
 IR Inten    --     55.2438                43.4712                34.2522

                     70                     71                     72
                      A                      A                      A
 Frequencies --   3102.3965              3166.0120              3169.7153
 Red. masses --      1.1069                 1.1002                 1.1015
 Frc consts  --      6.2771                 6.4974                 6.5202
 IR Inten    --     28.1351                19.6615                17.1917

                     73                     74                     75
                      A                      A                      A
 Frequencies --   3171.2607              3220.7455              3230.5261
 Red. masses --      1.0895                 1.0909                 1.0903
 Frc consts  --      6.4556                 6.6671                 6.7041
 IR Inten    --      0.6762                 5.8722                 3.0376

                     76                     77                     78
                      A                      A                      A
 Frequencies --   3244.1378              3793.4598              3799.1545
 Red. masses --      1.0899                 1.0652                 1.0644
 Frc consts  --      6.7585                 9.0311                 9.0517
 IR Inten    --      3.3342               166.9317               107.6874

 - Thermochemistry -
 -------------------
 Temperature   298.150 Kelvin.  Pressure   1.00000 Atm.
 Atom     1 has atomic number  6 and mass  12.00000

 Molecular mass:   224.06847 amu.
 Principal axes and moments of inertia in atomic units:
                           1         2         3
     Eigenvalues --  2504.857216590.879229072.57889
           X            0.99994   0.01055  -0.00000
           Y           -0.01055   0.99994  -0.00000
           Z            0.00000   0.00000   1.00000
 This molecule is an asymmetric top.
 Rotational symmetry number  1.
 Warning -- assumption of classical behavior for rotation
           may cause significant error
 Rotational temperatures (Kelvin)      0.03458     0.01314     0.00955
 Rotational constants (GHZ):           0.72050     0.27382     0.19892
 Zero-point vibrational energy     575727.8 (Joules/Mol)
                                  137.60225 (Kcal/Mol)
 Warning -- explicit consideration of  26 degrees of freedom as
           vibrations may cause significant error
 Vibrational temperatures:     43.30    82.23    94.27   103.34   131.03
          (Kelvin)            194.18   227.18   256.02   291.50   301.59
                              351.71   359.84   406.46   426.51   437.59
                              529.44   544.60   562.72   688.41   719.50
                              736.94   772.41   816.29   840.08   868.52
                              883.21   966.21  1024.63  1049.37  1078.01
                             1185.22  1193.90  1207.13  1262.84  1356.07
                             1413.73  1462.66  1469.43  1572.65  1654.80
                             1675.78  1685.44  1689.76  1727.89  1742.37
                             1755.54  1813.44  1825.24  1878.94  1880.66
                             1937.68  1970.10  2024.40  2065.35  2112.85
                             2139.53  2150.84  2154.55  2161.87  2166.24
                             2168.42  2254.43  2370.00  2388.49  2437.98
                             2585.77  4342.50  4355.67  4445.21  4463.65
                             4555.18  4560.51  4562.73  4633.93  4648.00
                             4667.58  5457.94  5466.13

 Zero-point correction=                           0.219283 (Hartree/Particle)
 Thermal correction to Energy=                    0.235074
 Thermal correction to Enthalpy=                  0.236018
 Thermal correction to Gibbs Free Energy=         0.175110
 Sum of electronic and zero-point Energies=           -802.037416
 Sum of electronic and thermal Energies=              -802.021625
 Sum of electronic and thermal Enthalpies=            -802.020681
 Sum of electronic and thermal Free Energies=         -802.081589

                     E (Thermal)             CV                S
                      KCal/Mol        Cal/Mol-Kelvin    Cal/Mol-Kelvin
 Total                  147.511             58.118            128.192
 Electronic               0.000              0.000              0.000
 Translational            0.889              2.981             42.123
 Rotational               0.889              2.981             33.371
 Vibrational            145.734             52.156             52.698
 Vibration     1          0.594              1.984              5.823
 Vibration     2          0.596              1.975              4.553
 Vibration     3          0.597              1.971              4.284
 Vibration     4          0.598              1.967              4.103
 Vibration     5          0.602              1.956              3.637
 Vibration     6          0.613              1.918              2.874
 Vibration     7          0.621              1.894              2.575
 Vibration     8          0.628              1.869              2.350
 Vibration     9          0.639              1.836              2.109
 Vibration    10          0.642              1.826              2.047
 Vibration    11          0.660              1.772              1.770
 Vibration    12          0.663              1.763              1.730
 Vibration    13          0.682              1.706              1.518
 Vibration    14          0.690              1.680              1.437
 Vibration    15          0.695              1.666              1.394
 Vibration    16          0.741              1.538              1.088
 Vibration    17          0.749              1.516              1.045
 Vibration    18          0.759              1.489              0.996
 Vibration    19          0.835              1.298              0.714
 Vibration    20          0.855              1.250              0.658
 Vibration    21          0.867              1.223              0.628
 Vibration    22          0.892              1.169              0.572
 Vibration    23          0.923              1.102              0.509
 Vibration    24          0.941              1.066              0.478
 Vibration    25          0.962              1.024              0.443
 Vibration    26          0.973              1.003              0.426

 Optimization completed.
    -- Stationary point found.
 Normal termination of Gaussian 09 at Tue Dec 17 22:24:49 2024.
