 Gaussian 09, Revision E.01,
 Gaussian 09:  ES64L-G09RevE.01 30-Nov-2015

 -----------------------------------------------------
 # opt freq b3pw91/6-31+g(d,p) EmpiricalDispersion=GD3
 -----------------------------------------------------

 ----------
 [No Title]
 ----------
 Symbolic Z-matrix:
 Charge =  1 Multiplicity = 1

 SCF Done:  E(RB3PW91) =  -802.607348434     A.U. after   16 cycles
 SCF Done:  E(RB3PW91) =  -802.607362389     A.U. after   11 cycles
 SCF Done:  E(RB3PW91) =  -802.607363344     A.U. after    9 cycles
 SCF Done:  E(RB3PW91) =  -802.607363818     A.U. after   10 cycles
 SCF Done:  E(RB3PW91) =  -802.607364223     A.U. after   10 cycles
 SCF Done:  E(RB3PW91) =  -802.607364501     A.U. after   10 cycles
 SCF Done:  E(RB3PW91) =  -802.607364645     A.U. after    9 cycles
 Optimization completed.
    -- Stationary point found.
 Normal termination of Gaussian 09 at Tue Dec 17 23:29:31 2024.

 ----------------------------------------------------------------------
 #N Geom=AllCheck Guess=TCheck SCRF=Check GenChk RB3PW91/6-31+G(d,p) Fr
 eq
 ----------------------------------------------------------------------

 Structure from the checkpoint file:  "B3PW91D3SAYang.chk"
 ----------
 [No Title]
 ----------
 Charge =  1 Multiplicity = 1

                         Standard orientation:
 ---------------------------------------------------------------------
 Center     Atomic      Atomic             Coordinates (Angstroms)
 Number     Number       Type             X           Y           Z
 ---------------------------------------------------------------------
      1          6           0       -2.399404    0.203206    0.000876
      2          6           0       -1.927959   -1.134057   -0.007287
      3          6           0       -0.560575   -1.351231   -0.011302
      4          6           0        0.357755   -0.264942   -0.008090
      5          6           0       -0.127696    1.071212    0.003089
      6          6           0       -1.486237    1.293967    0.005853
      7          8           0       -3.703552    0.419852    0.004802
      8          8           0       -2.885944   -2.070515   -0.010044
      9          6           0       -2.497826   -3.441144   -0.018559
     10          8           0       -2.116529    2.489037    0.015156
     11          6           0       -1.335165    3.683330    0.020121
     12          6           0        1.734864   -0.572885   -0.012068
     13          6           0        2.801812    0.319904   -0.018835
     14          6           0        4.116416   -0.116829    0.001094
     15          8           0        5.079661    0.781128   -0.115567
     16          8           0        4.407949   -1.401116    0.145183
     17          1           0       -0.172868   -2.363371   -0.017574
     18          1           0        0.559416    1.907241    0.009555
     19          1           0       -3.867349    1.378877    0.011093
     20          1           0       -3.428230   -4.007543   -0.019622
     21          1           0       -1.922781   -3.681669   -0.920997
     22          1           0       -1.918712   -3.691764    0.878510
     23          1           0       -2.050255    4.504795    0.025963
     24          1           0       -0.710962    3.732611    0.919524
     25          1           0       -0.714427    3.742299   -0.881099
     26          1           0        1.988358   -1.631713   -0.008569
     27          1           0        2.670577    1.394496   -0.042052
     28          1           0        5.958522    0.467300    0.143863
     29          1           0        5.300126   -1.641817   -0.144185
 ---------------------------------------------------------------------

 SCF Done:  E(RB3PW91) =  -802.607364646     A.U. after    1 cycles

 The electronic state is 1-A.
 Alpha  occ. eigenvalues --  -19.37644 -19.37527 -19.32153 -19.31931 -19.29912
 Alpha  occ. eigenvalues --  -10.49610 -10.39580 -10.38372 -10.37704 -10.36456
 Alpha  occ. eigenvalues --  -10.34879 -10.33966 -10.33735 -10.33363 -10.32682
 Alpha  occ. eigenvalues --  -10.32466  -1.31472  -1.23831  -1.23802  -1.20960
 Alpha  occ. eigenvalues --   -1.19596  -1.01232  -0.97291  -0.91810  -0.90357
 Alpha  occ. eigenvalues --   -0.85610  -0.84831  -0.81605  -0.79812  -0.78256
 Alpha  occ. eigenvalues --   -0.74071  -0.71543  -0.70479  -0.67930  -0.65892
 Alpha  occ. eigenvalues --   -0.64450  -0.63926  -0.63171  -0.61233  -0.60927
 Alpha  occ. eigenvalues --   -0.60133  -0.58908  -0.57959  -0.55718  -0.55217
 Alpha  occ. eigenvalues --   -0.55180  -0.54729  -0.53324  -0.52915  -0.52125
 Alpha  occ. eigenvalues --   -0.50797  -0.49468  -0.47961  -0.47867  -0.46475
 Alpha  occ. eigenvalues --   -0.45661  -0.42081  -0.36610  -0.34638
 Alpha virt. eigenvalues --   -0.24525  -0.14644  -0.13952  -0.12378  -0.09252
 Alpha virt. eigenvalues --   -0.09153  -0.08923  -0.08097  -0.07288  -0.06089
 Alpha virt. eigenvalues --   -0.05559  -0.05255  -0.04640  -0.03851  -0.03720

 Mulliken charges:
               1
     1  C   -0.298801
     2  C    0.395321
     3  C    0.103986
     4  C   -0.340734
     5  C   -0.102308
     6  C    0.261323
     7  O   -0.438493
     8  O   -0.303879
     9  C   -0.143194
    10  O   -0.400365
    11  C   -0.150961
    12  C    0.061917
    13  C   -0.622714
    14  C    0.847763
    15  O   -0.400192
    16  O   -0.444602
    17  H    0.167510
    18  H    0.151755
    19  H    0.428492
    20  H    0.194665
    21  H    0.168025
    22  H    0.168342
    23  H    0.194095
    24  H    0.174406
    25  H    0.174472
    26  H    0.187502
    27  H    0.181855
    28  H    0.391564
    29  H    0.393250
 Sum of Mulliken charges =   1.00000

 Dipole moment (field-independent basis, Debye):
    X=              9.7148    Y=             -0.0432    Z=             -0.0497  Tot=              9.7150
 Quadrupole moment (field-independent basis, Debye-Ang):
   XX=             -9.6967   YY=            -55.2650   ZZ=            -93.7791
   XY=            -11.1605   XZ=              0.1012   YZ=              1.4527

  Exact polarizability: 337.158  -7.080 166.449  -0.232  -0.190  80.202
 Approx polarizability: 676.297 -29.154 237.873  -0.857  -0.968 118.930

                      1                      2                      3
                      A                      A                      A
 Frequencies --     46.2715                57.7924                65.7885
 Red. masses --      6.2907                 5.3624                 3.2352
 Frc consts  --      0.0079                 0.0106                 0.0082
 IR Inten    --      0.5758                 0.8398                 8.8509

                      4                      5                      6
                      A                      A                      A
 Frequencies --     73.7940               108.1830               141.8059
 Red. masses --      5.0976                 3.6689                 5.7742
 Frc consts  --      0.0164                 0.0253                 0.0684
 IR Inten    --      0.6857                 0.0905                 0.8758

                      7                      8                      9
                      A                      A                      A
 Frequencies --    173.8852               180.1619               198.4301
 Red. masses --      3.8852                 3.4175                 2.2763
 Frc consts  --      0.0692                 0.0654                 0.0528
 IR Inten    --      3.1150                15.1239                12.5320

                     10                     11                     12
                      A                      A                      A
 Frequencies --    202.6722               247.7626               251.5117
 Red. masses --      2.2997                 5.0761                 1.1986
 Frc consts  --      0.0557                 0.1836                 0.0447
 IR Inten    --      5.0668                 1.9344                33.1467

                     13                     14                     15
                      A                      A                      A
 Frequencies --    268.1528               293.3207               306.2827
 Red. masses --      1.4987                 1.5790                 4.8022
 Frc consts  --      0.0635                 0.0800                 0.2654
 IR Inten    --     82.7514                82.6372                35.9044

                     16                     17                     18
                      A                      A                      A
 Frequencies --    339.1224               363.2997               378.1764
 Red. masses --      2.3594                 4.4380                 4.4284
 Frc consts  --      0.1599                 0.3451                 0.3732
 IR Inten    --     67.8258                 2.5154                 0.6203

                     19                     20                     21
                      A                      A                      A
 Frequencies --    406.7582               413.6205               498.5526
 Red. masses --      1.2924                 2.6491                 6.1845
 Frc consts  --      0.1260                 0.2670                 0.9057
 IR Inten    --    214.1259                42.6992                 7.7783

                     22                     23                     24
                      A                      A                      A
 Frequencies --    525.4944               532.7193               555.8486
 Red. masses --      6.7778                 5.0347                 2.4642
 Frc consts  --      1.1028                 0.8418                 0.4486
 IR Inten    --      2.5622                22.9274                22.8011

                     25                     26                     27
                      A                      A                      A
 Frequencies --    583.1769               590.6043               612.2359
 Red. masses --      3.6422                 3.7656                 1.3829
 Frc consts  --      0.7298                 0.7739                 0.3054
 IR Inten    --     11.7840                10.3627                77.6304

                     28                     29                     30
                      A                      A                      A
 Frequencies --    673.1504               688.8958               715.2941
 Red. masses --      4.3848                 4.9346                 5.0537
 Frc consts  --      1.1706                 1.3798                 1.5235
 IR Inten    --      0.5320                 8.4293                48.0315

                     31                     32                     33
                      A                      A                      A
 Frequencies --    728.9076               828.2624               838.4627
 Red. masses --     10.2107                 1.5489                 5.6684
 Frc consts  --      3.1963                 0.6261                 2.3479
 IR Inten    --      0.1650                 5.9438                 2.3242

                     34                     35                     36
                      A                      A                      A
 Frequencies --    844.9142               863.8650               941.5134
 Red. masses --      1.3520                 1.5332                 5.0814
 Frc consts  --      0.5687                 0.6741                 2.6539
 IR Inten    --     38.3115                24.7163                 3.8339

                     37                     38                     39
                      A                      A                      A
 Frequencies --    988.2120               994.1810              1024.0252
 Red. masses --      1.4538                 3.7239                 4.0336
 Frc consts  --      0.8365                 2.1686                 2.4921
 IR Inten    --     72.0916               153.8274                19.8858

                     40                     41                     42
                      A                      A                      A
 Frequencies --   1075.0024              1153.3217              1155.5333
 Red. masses --      4.6853                 1.3466                 2.0446
 Frc consts  --      3.1901                 1.0553                 1.6085
 IR Inten    --      0.7932               139.1678               396.4252

                     43                     44                     45
                      A                      A                      A
 Frequencies --   1169.6699              1170.5220              1173.3992
 Red. masses --      1.5286                 1.2740                 1.2677
 Frc consts  --      1.2322                 1.0285                 1.0284
 IR Inten    --    981.9506                 1.2383                 0.5818

                     46                     47                     48
                      A                      A                      A
 Frequencies --   1208.0951              1209.5976              1234.4261
 Red. masses --      1.4149                 1.3449                 1.7051
 Frc consts  --      1.2167                 1.1594                 1.5308
 IR Inten    --      7.1897                 4.2504                25.8335

                     49                     50                     51
                      A                      A                      A
 Frequencies --   1269.7817              1289.2651              1307.9185
 Red. masses --      2.1247                 1.6083                 1.6049
 Frc consts  --      2.0184                 1.5750                 1.6176
 IR Inten    --    364.4506                62.6317               214.9658

                     52                     53                     54
                      A                      A                      A
 Frequencies --   1333.9268              1358.6717              1400.3609
 Red. masses --      1.5755                 3.5070                 2.9561
 Frc consts  --      1.6517                 3.8143                 3.4155
 IR Inten    --     13.8207                46.4544               387.2893

                     55                     56                     57
                      A                      A                      A
 Frequencies --   1434.5266              1475.6704              1479.1698
 Red. masses --      4.2032                 1.2469                 2.0701
 Frc consts  --      5.0962                 1.5997                 2.6686
 IR Inten    --    712.4864                 2.9878               184.5683

                     58                     59                     60
                      A                      A                      A
 Frequencies --   1491.7956              1497.7614              1499.3593
 Red. masses --      2.0093                 1.0422                 1.0640
 Frc consts  --      2.6346                 1.3775                 1.4093
 IR Inten    --    237.5080                14.2978                20.6889

                     61                     62                     63
                      A                      A                      A
 Frequencies --   1500.1195              1500.9602              1532.3872
 Red. masses --      1.0429                 1.1100                 5.1276
 Frc consts  --      1.3828                 1.4734                 7.0941
 IR Inten    --     14.7423               160.8547               350.2477

                     64                     65                     66
                      A                      A                      A
 Frequencies --   1548.6791              1614.3437              1632.7244
 Red. masses --      4.9485                 4.6417                 5.7243
 Frc consts  --      6.9928                 7.1272                 8.9908
 IR Inten    --    723.4627                80.2713               436.8587

                     67                     68                     69
                      A                      A                      A
 Frequencies --   1647.8550              1683.0675              3032.4330
 Red. masses --      4.6123                 5.4063                 1.0343
 Frc consts  --      7.3791                 9.0230                 5.6038
 IR Inten    --    550.5320               809.0168                30.4582

                     70                     71                     72
                      A                      A                      A
 Frequencies --   3041.5640              3112.2352              3125.1619
 Red. masses --      1.0334                 1.1076                 1.1082
 Frc consts  --      5.6325                 6.3208                 6.3769
 IR Inten    --     23.2097                22.3223                17.3661

                     73                     74                     75
                      A                      A                      A
 Frequencies --   3189.3870              3190.0489              3193.3518
 Red. masses --      1.0902                 1.1013                 1.1026
 Frc consts  --      6.5337                 6.6031                 6.6246
 IR Inten    --      0.7194                 5.2470                 4.0219

                     76                     77                     78
                      A                      A                      A
 Frequencies --   3236.8503              3248.2555              3256.1155
 Red. masses --      1.0911                 1.0916                 1.0900
 Frc consts  --      6.7355                 6.7860                 6.8087
 IR Inten    --      1.5735                 2.7496                 0.0432

                     79                     80                     81
                      A                      A                      A
 Frequencies --   3737.8760              3805.9313              3815.3264
 Red. masses --      1.0652                 1.0678                 1.0661
 Frc consts  --      8.7685                 9.1134                 9.1438
 IR Inten    --    354.2699                70.9516               644.7863

 - Thermochemistry -
 -------------------
 Temperature   298.150 Kelvin.  Pressure   1.00000 Atm.
 Atom     1 has atomic number  6 and mass  12.00000

 Molecular mass:   225.07630 amu.
 Principal axes and moments of inertia in atomic units:
                           1         2         3
     Eigenvalues --  2532.856176579.647599084.74589
           X            0.99999   0.00353   0.00000
           Y           -0.00353   0.99999   0.00115
           Z           -0.00000  -0.00115   1.00000
 This molecule is an asymmetric top.
 Rotational symmetry number  1.
 Warning -- assumption of classical behavior for rotation
           may cause significant error
 Rotational temperatures (Kelvin)      0.03420     0.01316     0.00953
 Rotational constants (GHZ):           0.71253     0.27429     0.19866
 Zero-point vibrational energy     607568.7 (Joules/Mol)
                                  145.21241 (Kcal/Mol)
 Warning -- explicit consideration of  27 degrees of freedom as
           vibrations may cause significant error
 Vibrational temperatures:     66.57    83.15    94.65   106.17   155.65
          (Kelvin)            204.03   250.18   259.21   285.50   291.60
                              356.47   361.87   385.81   422.02   440.67
                              487.92   522.71   544.11   585.23   595.11
                              717.31   756.07   766.46   799.74   839.06
                              849.75   880.87   968.51   991.17  1029.15
                             1048.73  1191.68  1206.36  1215.64  1242.91
                             1354.63  1421.81  1430.40  1473.34  1546.69
                             1659.37  1662.55  1682.89  1684.12  1688.26
                             1738.18  1740.34  1776.06  1826.93  1854.96
                             1881.80  1919.22  1954.82  2014.80  2063.96
                             2123.16  2128.19  2146.36  2154.94  2157.24
                             2158.33  2159.54  2204.76  2228.20  2322.68
                             2349.12  2370.89  2421.56  4362.99  4376.13
                             4477.81  4496.41  4588.81  4589.76  4594.52
                             4657.10  4673.51  4684.82  5377.96  5475.88
                             5489.40

 Zero-point correction=                           0.231411 (Hartree/Particle)
 Thermal correction to Energy=                    0.247583
 Thermal correction to Enthalpy=                  0.248528
 Thermal correction to Gibbs Free Energy=         0.187559
 Sum of electronic and zero-point Energies=           -802.375954
 Sum of electronic and thermal Energies=              -802.359781
 Sum of electronic and thermal Enthalpies=            -802.358837
 Sum of electronic and thermal Free Energies=         -802.419806

                     E (Thermal)             CV                S
                      KCal/Mol        Cal/Mol-Kelvin    Cal/Mol-Kelvin
 Total                  155.361             60.166            128.319
 Electronic               0.000              0.000              0.000
 Translational            0.889              2.981             42.136
 Rotational               0.889              2.981             33.381
 Vibrational            153.583             54.205             52.801
 Vibration     1          0.595              1.979              4.971
 Vibration     2          0.596              1.974              4.531
 Vibration     3          0.597              1.971              4.276
 Vibration     4          0.599              1.966              4.050
 Vibration     5          0.606              1.943              3.301
 Vibration     6          0.615              1.911              2.779
 Vibration     7          0.627              1.875              2.393
 Vibration     8          0.629              1.867              2.327
 Vibration     9          0.637              1.842              2.148
 Vibration    10          0.639              1.836              2.109
 Vibration    11          0.661              1.766              1.746
 Vibration    12          0.663              1.760              1.720
 Vibration    13          0.673              1.732              1.608
 Vibration    14          0.688              1.686              1.455
 Vibration    15          0.697              1.662              1.382
 Vibration    16          0.719              1.597              1.216
 Vibration    17          0.737              1.548              1.108
 Vibration    18          0.748              1.517              1.046
 Vibration    19          0.772              1.456              0.938
 Vibration    20          0.777              1.441              0.914
 Vibration    21          0.854              1.253              0.662
 Vibration    22          0.880              1.194              0.597
 Vibration    23          0.888              1.178              0.581
 Vibration    24          0.911              1.127              0.532
 Vibration    25          0.940              1.068              0.480
 Vibration    26          0.948              1.052              0.466
 Vibration    27          0.971              1.006              0.429

 Optimization completed.
    -- Stationary point found.
 Normal termination of Gaussian 09 at Tue Dec 17 23:37:01 2024.
