 Gaussian 09, Revision E.01,
 Gaussian 09:  ES64L-G09RevE.01 30-Nov-2015

 --------------------------------------------------------
 # opt freq cam-b3lyp/6-31+g(d,p) empiricaldispersion=gd3
 --------------------------------------------------------

 ----------
 [No Title]
 ----------
 Symbolic Z-matrix:
 Charge =  0 Multiplicity = 1

 SCF Done:  E(RCAM-B3LYP) =  -802.197228660     A.U. after   17 cycles
 SCF Done:  E(RCAM-B3LYP) =  -802.197520744     A.U. after   13 cycles
 SCF Done:  E(RCAM-B3LYP) =  -802.197536688     A.U. after   11 cycles
 SCF Done:  E(RCAM-B3LYP) =  -802.197537982     A.U. after   11 cycles
 SCF Done:  E(RCAM-B3LYP) =  -802.197537831     A.U. after   10 cycles
 SCF Done:  E(RCAM-B3LYP) =  -802.197538021     A.U. after    9 cycles
 Optimization completed.
    -- Stationary point found.
 Normal termination of Gaussian 09 at Tue Dec 17 14:06:34 2024.

 ----------------------------------------------------------------------
 #N Geom=AllCheck Guess=TCheck SCRF=Check GenChk RCAM-B3LYP/6-31+G(d,p)
  Freq
 ----------------------------------------------------------------------

 Structure from the checkpoint file:  "camb3lypD3SA.chk"
 ----------
 [No Title]
 ----------
 Charge =  0 Multiplicity = 1

                         Standard orientation:
 ---------------------------------------------------------------------
 Center     Atomic      Atomic             Coordinates (Angstroms)
 Number     Number       Type             X           Y           Z
 ---------------------------------------------------------------------
      1          6           0       -2.381643    0.212754   -0.000006
      2          6           0       -1.910974   -1.102853   -0.000006
      3          6           0       -0.537297   -1.335995    0.000008
      4          6           0        0.375000   -0.274442    0.000019
      5          6           0       -0.100208    1.043296    0.000021
      6          6           0       -1.466248    1.272518    0.000008
      7          8           0       -3.713055    0.448248   -0.000018
      8          8           0       -2.864059   -2.066424   -0.000021
      9          6           0       -2.449083   -3.419003    0.000003
     10          8           0       -2.066338    2.501518    0.000011
     11          6           0       -1.244055    3.655672    0.000021
     12          6           0        1.799900   -0.593161    0.000028
     13          6           0        2.832408    0.262330    0.000005
     14          6           0        4.207238   -0.253566    0.000026
     15          8           0        5.118974    0.747773   -0.000076
     16          8           0        4.541148   -1.420861    0.000003
     17          1           0       -0.158308   -2.350037    0.000007
     18          1           0        0.593245    1.872901    0.000035
     19          1           0       -3.846270    1.407579   -0.000012
     20          1           0       -3.363894   -4.010580    0.000002
     21          1           0       -1.862755   -3.657286   -0.895362
     22          1           0       -1.862774   -3.657260    0.895388
     23          1           0       -0.614013    3.688828    0.895749
     24          1           0       -0.613998    3.688832   -0.895697
     25          1           0       -1.921227    4.508904    0.000018
     26          1           0        2.052777   -1.651930    0.000057
     27          1           0        2.717896    1.339952   -0.000030
     28          1           0        5.995722    0.332754   -0.000109
 ---------------------------------------------------------------------

 SCF Done:  E(RCAM-B3LYP) =  -802.197538021     A.U. after    1 cycles

 The electronic state is 1-A.
 Alpha  occ. eigenvalues --  -19.28304 -19.27832 -19.26496 -19.26462 -19.21729
 Alpha  occ. eigenvalues --  -10.40271 -10.34166 -10.33714 -10.33598 -10.33486
 Alpha  occ. eigenvalues --  -10.32113 -10.29605 -10.28930 -10.27933 -10.27782
 Alpha  occ. eigenvalues --  -10.27769  -1.19470  -1.18438  -1.16502  -1.14350
 Alpha  occ. eigenvalues --   -1.09910  -0.96055  -0.89928  -0.85809  -0.84626
 Alpha  occ. eigenvalues --   -0.80690  -0.78685  -0.75434  -0.69900  -0.69053
 Alpha  occ. eigenvalues --   -0.65144  -0.62904  -0.62141  -0.58842  -0.58496
 Alpha  occ. eigenvalues --   -0.57052  -0.56678  -0.55475  -0.55076  -0.54170
 Alpha  occ. eigenvalues --   -0.52753  -0.52500  -0.50356  -0.49821  -0.48880
 Alpha  occ. eigenvalues --   -0.48300  -0.46715  -0.45004  -0.43814  -0.43334
 Alpha  occ. eigenvalues --   -0.42730  -0.42614  -0.40662  -0.40378  -0.39065
 Alpha  occ. eigenvalues --   -0.35048  -0.34187  -0.29409  -0.26365
 Alpha virt. eigenvalues --   -0.02977   0.02346   0.02979   0.03353   0.03802
 Alpha virt. eigenvalues --    0.04235   0.05309   0.05391   0.05901   0.06940
 Alpha virt. eigenvalues --    0.06986   0.07825   0.08074   0.08866   0.08957

 Mulliken charges:
               1
     1  C   -0.112935
     2  C    0.608658
     3  C   -0.172780
     4  C   -0.432924
     5  C   -0.253233
     6  C    0.331815
     7  O   -0.550996
     8  O   -0.381168
     9  C   -0.120622
    10  O   -0.472854
    11  C   -0.124508
    12  C    0.203078
    13  C   -0.605250
    14  C    0.844340
    15  O   -0.479080
    16  O   -0.526422
    17  H    0.128725
    18  H    0.115071
    19  H    0.408804
    20  H    0.156455
    21  H    0.148135
    22  H    0.148135
    23  H    0.154623
    24  H    0.154623
    25  H    0.155582
    26  H    0.161756
    27  H    0.132999
    28  H    0.379974
 Sum of Mulliken charges =  -0.00000

 Dipole moment (field-independent basis, Debye):
    X=             -0.5700    Y=              2.5027    Z=              0.0001  Tot=              2.5668
 Quadrupole moment (field-independent basis, Debye-Ang):
   XX=           -104.4447   YY=            -75.3771   ZZ=            -96.7590
   XY=              5.0295   XZ=             -0.0004   YZ=              0.0000

  Exact polarizability: 234.838   4.119 170.621  -0.005  -0.003  84.944
 Approx polarizability: 249.265   5.344 196.979   0.000  -0.000 108.213

                      1                      2                      3
                      A                      A                      A
 Frequencies --     27.5673                57.3089                67.6821
 Red. masses --      6.3882                 2.9870                 7.1888
 Frc consts  --      0.0029                 0.0058                 0.0194
 IR Inten    --      0.3415                 8.9290                 0.1676

                      4                      5                      6
                      A                      A                      A
 Frequencies --     73.4221                90.6289               133.3106
 Red. masses --      5.6725                 3.5633                 3.3672
 Frc consts  --      0.0180                 0.0172                 0.0353
 IR Inten    --      0.4050                 0.1376                 0.1904

                      7                      8                      9
                      A                      A                      A
 Frequencies --    160.3144               180.5060               205.6668
 Red. masses --      4.8532                 4.2258                 4.7357
 Frc consts  --      0.0735                 0.0811                 0.1180
 IR Inten    --      3.8098                 3.5977                 1.6492

                     10                     11                     12
                      A                      A                      A
 Frequencies --    214.5121               244.2885               254.0832
 Red. masses --      1.5309                 1.6027                 5.5156
 Frc consts  --      0.0415                 0.0564                 0.2098
 IR Inten    --      0.0148                 0.0745                 0.9034

                     13                     14                     15
                      A                      A                      A
 Frequencies --    284.8465               301.7077               306.1760
 Red. masses --      1.8314                 6.6401                 1.7897
 Frc consts  --      0.0875                 0.3561                 0.0988
 IR Inten    --      0.3370                 6.7635                 0.0299

                     16                     17                     18
                      A                      A                      A
 Frequencies --    372.0044               382.6665               395.8151
 Red. masses --      4.3281                 4.4821                 4.1158
 Frc consts  --      0.3529                 0.3867                 0.3799
 IR Inten    --      0.7237                 0.9241                 1.6719

                     19                     20                     21
                      A                      A                      A
 Frequencies --    469.9075               505.7897               517.5096
 Red. masses --      1.1295                 6.1935                 5.2518
 Frc consts  --      0.1470                 0.9335                 0.8287
 IR Inten    --    103.5909                 8.5374                21.8260

                     22                     23                     24
                      A                      A                      A
 Frequencies --    545.5575               576.0602               596.3383
 Red. masses --      6.8316                 1.8302                 4.1795
 Frc consts  --      1.1980                 0.3578                 0.8757
 IR Inten    --      1.9162                26.6672                 1.8773

                     25                     26                     27
                      A                      A                      A
 Frequencies --    609.9408               623.6665               678.5770
 Red. masses --      5.3223                 1.7858                 4.1876
 Frc consts  --      1.1666                 0.4093                 1.1361
 IR Inten    --     85.3698                82.9256                12.6463

                     28                     29                     30
                      A                      A                      A
 Frequencies --    719.9933               744.0267               761.1785
 Red. masses --      4.8562                 6.9576                 3.7444
 Frc consts  --      1.4832                 2.2693                 1.2782
 IR Inten    --      4.1342                 0.6079                18.4099

                     31                     32                     33
                      A                      A                      A
 Frequencies --    839.4419               853.5044               868.2717
 Red. masses --      5.5666                 1.4726                 1.5300
 Frc consts  --      2.3111                 0.6320                 0.6796
 IR Inten    --     12.1452                35.6613                24.3412

                     34                     35                     36
                      A                      A                      A
 Frequencies --    903.3877               953.5648               989.7705
 Red. masses --      1.9620                 5.0970                 3.7547
 Frc consts  --      0.9434                 2.7306                 2.1672
 IR Inten    --     11.7474                15.4363                22.3287

                     37                     38                     39
                      A                      A                      A
 Frequencies --   1029.6925              1036.7534              1107.5613
 Red. masses --      4.1631                 1.1851                 5.1124
 Frc consts  --      2.6006                 0.7505                 3.6950
 IR Inten    --      3.2230                29.7720                 4.9129

                     40                     41                     42
                      A                      A                      A
 Frequencies --   1171.3417              1179.9285              1184.7294
 Red. masses --      2.3428                 2.9915                 1.2759
 Frc consts  --      1.8939                 2.4539                 1.0552
 IR Inten    --    659.0888               238.1838                 1.1894

                     43                     44                     45
                      A                      A                      A
 Frequencies --   1186.8623              1211.2371              1221.7965
 Red. masses --      1.2708                 1.6392                 1.3747
 Frc consts  --      1.0547                 1.4169                 1.2091
 IR Inten    --      0.6997                40.4896                 5.8930

                     46                     47                     48
                      A                      A                      A
 Frequencies --   1230.4435              1270.9364              1278.8197
 Red. masses --      1.5836                 2.2235                 1.4257
 Frc consts  --      1.4126                 2.1161                 1.3738
 IR Inten    --     28.1323               401.7397                 3.2407

                     49                     50                     51
                      A                      A                      A
 Frequencies --   1312.5302              1318.8384              1359.8373
 Red. masses --      1.6621                 3.0313                 1.4336
 Frc consts  --      1.6871                 3.1065                 1.5619
 IR Inten    --     57.9983                39.6469                66.2003

                     52                     53                     54
                      A                      A                      A
 Frequencies --   1385.3747              1409.6880              1435.6942
 Red. masses --      2.6521                 3.7061                 3.1829
 Frc consts  --      2.9990                 4.3393                 3.8654
 IR Inten    --    277.6091               116.5926                75.1981

                     55                     56                     57
                      A                      A                      A
 Frequencies --   1483.2082              1501.4797              1506.9572
 Red. masses --      1.4014                 1.2963                 1.0430
 Frc consts  --      1.8164                 1.7218                 1.3956
 IR Inten    --     73.2519                 5.4275                10.4242

                     58                     59                     60
                      A                      A                      A
 Frequencies --   1509.5297              1516.8042              1517.8445
 Red. masses --      1.0435                 1.1509                 2.2350
 Frc consts  --      1.4010                 1.5601                 3.0337
 IR Inten    --     10.3932                25.3509               179.7449

                     61                     62                     63
                      A                      A                      A
 Frequencies --   1518.7045              1590.4272              1673.4259
 Red. masses --      1.0688                 5.1335                 6.2689
 Frc consts  --      1.4524                 7.6506                10.3431
 IR Inten    --     30.8011               326.0903                65.9786

                     64                     65                     66
                      A                      A                      A
 Frequencies --   1690.1294              1729.5108              1824.2740
 Red. masses --      6.6944                 6.2600                 9.0255
 Frc consts  --     11.2668                11.0324                17.6972
 IR Inten    --    231.7730               375.0940               344.3904

                     67                     68                     69
                      A                      A                      A
 Frequencies --   3040.3820              3049.2931              3107.9981
 Red. masses --      1.0348                 1.0338                 1.1069
 Frc consts  --      5.6357                 5.6635                 6.2999
 IR Inten    --     48.2704                38.4326                32.1191

                     70                     71                     72
                      A                      A                      A
 Frequencies --   3120.5074              3180.5190              3184.0333
 Red. masses --      1.1075                 1.1009                 1.1023
 Frc consts  --      6.3537                 6.5613                 6.5840
 IR Inten    --     26.1326                18.5432                15.8948

                     73                     74                     75
                      A                      A                      A
 Frequencies --   3190.5111              3237.7244              3247.3351
 Red. masses --      1.0902                 1.0917                 1.0907
 Frc consts  --      6.5384                 6.7429                 6.7767
 IR Inten    --      0.5285                 4.8149                 2.2476

                     76                     77                     78
                      A                      A                      A
 Frequencies --   3261.1539              3807.1633              3812.2212
 Red. masses --      1.0902                 1.0645                 1.0652
 Frc consts  --      6.8312                 9.0905                 9.1206
 IR Inten    --      2.6707               141.4249               150.2829

 - Thermochemistry -
 -------------------
 Temperature   298.150 Kelvin.  Pressure   1.00000 Atm.
 Atom     1 has atomic number  6 and mass  12.00000

 Molecular mass:   224.06847 amu.
 Principal axes and moments of inertia in atomic units:
                           1         2         3
     Eigenvalues --  2496.912136568.872099042.69275
           X            0.99994   0.01062   0.00000
           Y           -0.01062   0.99994  -0.00000
           Z           -0.00000   0.00000   1.00000
 This molecule is an asymmetric top.
 Rotational symmetry number  1.
 Warning -- assumption of classical behavior for rotation
           may cause significant error
 Rotational temperatures (Kelvin)      0.03469     0.01319     0.00958
 Rotational constants (GHZ):           0.72279     0.27474     0.19958
 Zero-point vibrational energy     581039.4 (Joules/Mol)
                                  138.87174 (Kcal/Mol)
 Warning -- explicit consideration of  25 degrees of freedom as
           vibrations may cause significant error
 Vibrational temperatures:     39.66    82.45    97.38   105.64   130.39
          (Kelvin)            191.80   230.66   259.71   295.91   308.63
                              351.48   365.57   409.83   434.09   440.52
                              535.23   550.57   569.49   676.09   727.72
                              744.58   784.93   828.82   858.00   877.57
                              897.32   976.32  1035.91  1070.49  1095.16
                             1207.77  1228.00  1249.25  1299.77  1371.97
                             1424.06  1481.50  1491.66  1593.53  1685.30
                             1697.65  1704.56  1707.63  1742.70  1757.89
                             1770.33  1828.59  1839.93  1888.44  1897.51
                             1956.50  1993.24  2028.22  2065.64  2134.00
                             2160.29  2168.17  2171.87  2182.34  2183.84
                             2185.07  2288.27  2407.68  2431.72  2488.38
                             2624.72  4374.43  4387.25  4471.71  4489.71
                             4576.05  4581.11  4590.43  4658.36  4672.19
                             4692.07  5477.65  5484.93

 Zero-point correction=                           0.221306 (Hartree/Particle)
 Thermal correction to Energy=                    0.236961
 Thermal correction to Enthalpy=                  0.237905
 Thermal correction to Gibbs Free Energy=         0.177196
 Sum of electronic and zero-point Energies=           -801.976232
 Sum of electronic and thermal Energies=              -801.960577
 Sum of electronic and thermal Enthalpies=            -801.959633
 Sum of electronic and thermal Free Energies=         -802.020342

                     E (Thermal)             CV                S
                      KCal/Mol        Cal/Mol-Kelvin    Cal/Mol-Kelvin
 Total                  148.695             57.525            127.773
 Electronic               0.000              0.000              0.000
 Translational            0.889              2.981             42.123
 Rotational               0.889              2.981             33.361
 Vibrational            146.918             51.563             52.289
 Vibration     1          0.593              1.984              5.997
 Vibration     2          0.596              1.975              4.548
 Vibration     3          0.598              1.970              4.220
 Vibration     4          0.599              1.967              4.059
 Vibration     5          0.602              1.956              3.646
 Vibration     6          0.613              1.920              2.898
 Vibration     7          0.622              1.891              2.546
 Vibration     8          0.629              1.866              2.323
 Vibration     9          0.640              1.832              2.082
 Vibration    10          0.644              1.819              2.005
 Vibration    11          0.660              1.772              1.771
 Vibration    12          0.665              1.756              1.702
 Vibration    13          0.683              1.702              1.504
 Vibration    14          0.694              1.670              1.407
 Vibration    15          0.697              1.662              1.383
 Vibration    16          0.744              1.530              1.072
 Vibration    17          0.752              1.507              1.029
 Vibration    18          0.763              1.479              0.978
 Vibration    19          0.827              1.317              0.738
 Vibration    20          0.861              1.237              0.644
 Vibration    21          0.873              1.211              0.616
 Vibration    22          0.901              1.149              0.553
 Vibration    23          0.932              1.083              0.493
 Vibration    24          0.954              1.040              0.456
 Vibration    25          0.969              1.011              0.433

 Optimization completed.
    -- Stationary point found.
 Normal termination of Gaussian 09 at Tue Dec 17 14:10:44 2024.
