 Gaussian 09, Revision E.01,
 Gaussian 09:  ES64L-G09RevE.01 30-Nov-2015

 --------------------------------------------------------
 # opt freq cam-b3lyp/6-31+g(d,p) empiricaldispersion=gd3
 --------------------------------------------------------

 ----------
 [No Title]
 ----------
 Symbolic Z-matrix:
 Charge =  1 Multiplicity = 1

 SCF Done:  E(RCAM-B3LYP) =  -802.537327751     A.U. after   17 cycles
 SCF Done:  E(RCAM-B3LYP) =  -802.537550105     A.U. after   12 cycles
 SCF Done:  E(RCAM-B3LYP) =  -802.537558934     A.U. after   11 cycles
 SCF Done:  E(RCAM-B3LYP) =  -802.537560393     A.U. after   11 cycles
 SCF Done:  E(RCAM-B3LYP) =  -802.537561326     A.U. after   11 cycles
 SCF Done:  E(RCAM-B3LYP) =  -802.537562030     A.U. after   11 cycles
 SCF Done:  E(RCAM-B3LYP) =  -802.537562763     A.U. after   11 cycles
 SCF Done:  E(RCAM-B3LYP) =  -802.537563013     A.U. after    9 cycles
 Optimization completed.
    -- Stationary point found.
 Normal termination of Gaussian 09 at Tue Dec 17 14:31:06 2024.

 ----------------------------------------------------------------------
 #N Geom=AllCheck Guess=TCheck SCRF=Check GenChk RCAM-B3LYP/6-31+G(d,p)
  Freq
 ----------------------------------------------------------------------

 Structure from the checkpoint file:  "camb3lypD3SAYang.chk"
 ----------
 [No Title]
 ----------
 Charge =  1 Multiplicity = 1

                         Standard orientation:
 ---------------------------------------------------------------------
 Center     Atomic      Atomic             Coordinates (Angstroms)
 Number     Number       Type             X           Y           Z
 ---------------------------------------------------------------------
      1          6           0       -2.391929    0.199569    0.001161
      2          6           0       -1.920151   -1.131453   -0.006279
      3          6           0       -0.556456   -1.347207   -0.010904
      4          6           0        0.357177   -0.261360   -0.008836
      5          6           0       -0.130015    1.070868    0.001985
      6          6           0       -1.485423    1.288741    0.005302
      7          8           0       -3.695854    0.415196    0.005327
      8          8           0       -2.875063   -2.072973   -0.008092
      9          6           0       -2.484210   -3.440525   -0.016920
     10          8           0       -2.116461    2.485117    0.014188
     11          6           0       -1.336717    3.678376    0.017534
     12          6           0        1.732401   -0.563888   -0.012279
     13          6           0        2.794983    0.329554   -0.018124
     14          6           0        4.103746   -0.113307    0.001221
     15          8           0        5.071358    0.775154   -0.101069
     16          8           0        4.388506   -1.396991    0.129919
     17          1           0       -0.167698   -2.357653   -0.016721
     18          1           0        0.554768    1.907362    0.007357
     19          1           0       -3.867765    1.372672    0.011123
     20          1           0       -3.410806   -4.010975   -0.017437
     21          1           0       -1.908699   -3.677582   -0.918461
     22          1           0       -1.903478   -3.687781    0.878511
     23          1           0       -2.049460    4.500409    0.023137
     24          1           0       -0.712140    3.726776    0.915179
     25          1           0       -0.716845    3.734831   -0.882904
     26          1           0        1.988493   -1.621095   -0.009008
     27          1           0        2.663720    1.402834   -0.040193
     28          1           0        5.957817    0.453852    0.123179
     29          1           0        5.291770   -1.643890   -0.119123
 ---------------------------------------------------------------------

 SCF Done:  E(RCAM-B3LYP) =  -802.537563013     A.U. after    1 cycles

 The electronic state is 1-A.
 Alpha  occ. eigenvalues --  -19.46534 -19.46352 -19.39747 -19.39508 -19.37432
 Alpha  occ. eigenvalues --  -10.59450 -10.48056 -10.46707 -10.46041 -10.45880
 Alpha  occ. eigenvalues --  -10.43336 -10.42298 -10.42160 -10.41797 -10.41278
 Alpha  occ. eigenvalues --  -10.41088  -1.39975  -1.31954  -1.31079  -1.28151
 Alpha  occ. eigenvalues --   -1.26702  -1.09435  -1.05506  -0.99609  -0.97913
 Alpha  occ. eigenvalues --   -0.93158  -0.92287  -0.88832  -0.87385  -0.85631
 Alpha  occ. eigenvalues --   -0.81094  -0.78749  -0.77360  -0.75149  -0.72790
 Alpha  occ. eigenvalues --   -0.71705  -0.71069  -0.69768  -0.68086  -0.67811
 Alpha  occ. eigenvalues --   -0.66870  -0.65633  -0.64519  -0.62119  -0.62101
 Alpha  occ. eigenvalues --   -0.61700  -0.61493  -0.60100  -0.59677  -0.58586
 Alpha  occ. eigenvalues --   -0.57318  -0.55559  -0.54023  -0.53878  -0.52449
 Alpha  occ. eigenvalues --   -0.51616  -0.47789  -0.41713  -0.38941
 Alpha virt. eigenvalues --   -0.20723  -0.12682  -0.09133  -0.07495  -0.07301
 Alpha virt. eigenvalues --   -0.07051  -0.06340  -0.05695  -0.04254  -0.03933
 Alpha virt. eigenvalues --   -0.03394  -0.02695  -0.02529  -0.02348  -0.01653

 Mulliken charges:
               1
     1  C   -0.079255
     2  C    0.663659
     3  C   -0.172799
     4  C   -0.399302
     5  C   -0.217089
     6  C    0.364511
     7  O   -0.477427
     8  O   -0.371660
     9  C   -0.112469
    10  O   -0.466578
    11  C   -0.118321
    12  C    0.171658
    13  C   -0.699793
    14  C    0.961467
    15  O   -0.424309
    16  O   -0.471133
    17  H    0.148980
    18  H    0.133552
    19  H    0.430424
    20  H    0.182263
    21  H    0.156093
    22  H    0.156330
    23  H    0.181713
    24  H    0.163096
    25  H    0.163102
    26  H    0.176247
    27  H    0.165275
    28  H    0.394117
    29  H    0.397649
 Sum of Mulliken charges =   1.00000

 Dipole moment (field-independent basis, Debye):
    X=             10.6562    Y=             -0.1937    Z=             -0.0455  Tot=             10.6581
 Quadrupole moment (field-independent basis, Debye-Ang):
   XX=            -10.7562   YY=            -57.2072   ZZ=            -94.5920
   XY=            -11.8079   XZ=              0.1242   YZ=              1.2850

  Exact polarizability: 333.735  -7.247 162.808  -0.207  -0.182  80.689
 Approx polarizability: 381.459 -11.425 182.751  -0.496  -0.636 103.614

                      1                      2                      3
                      A                      A                      A
 Frequencies --     47.4510                58.3515                65.3909
 Red. masses --      6.3901                 5.1958                 3.3015
 Frc consts  --      0.0085                 0.0104                 0.0083
 IR Inten    --      0.9325                 0.6805                 9.3439

                      4                      5                      6
                      A                      A                      A
 Frequencies --     75.6252               105.7483               143.2841
 Red. masses --      5.0917                 3.6575                 5.8134
 Frc consts  --      0.0172                 0.0241                 0.0703
 IR Inten    --      0.7092                 0.2028                 1.0362

                      7                      8                      9
                      A                      A                      A
 Frequencies --    176.0943               178.2794               201.6040
 Red. masses --      3.7678                 3.3460                 2.5877
 Frc consts  --      0.0688                 0.0627                 0.0620
 IR Inten    --     14.4147                16.3591                27.9787

                     10                     11                     12
                      A                      A                      A
 Frequencies --    207.0087               243.2451               252.3485
 Red. masses --      1.9736                 1.2160                 4.9273
 Frc consts  --      0.0498                 0.0424                 0.1849
 IR Inten    --      2.1077               129.5182                 3.7990

                     13                     14                     15
                      A                      A                      A
 Frequencies --    261.7903               291.7977               312.2603
 Red. masses --      1.3012                 1.6290                 6.0485
 Frc consts  --      0.0525                 0.0817                 0.3475
 IR Inten    --     43.3270                42.2096                14.5734

                     16                     17                     18
                      A                      A                      A
 Frequencies --    340.1345               367.1296               382.5405
 Red. masses --      2.7439                 4.4507                 4.4982
 Frc consts  --      0.1870                 0.3534                 0.3878
 IR Inten    --     35.9761                 2.7138                 1.1617

                     19                     20                     21
                      A                      A                      A
 Frequencies --    417.8794               421.7125               504.0787
 Red. masses --      2.2566                 1.3881                 6.2218
 Frc consts  --      0.2322                 0.1454                 0.9315
 IR Inten    --     60.1652               212.9868                20.2785

                     22                     23                     24
                      A                      A                      A
 Frequencies --    534.3060               538.5202               563.6294
 Red. masses --      6.7232                 5.0663                 2.3678
 Frc consts  --      1.1309                 0.8657                 0.4432
 IR Inten    --      0.5944                32.7156                26.5926

                     25                     26                     27
                      A                      A                      A
 Frequencies --    583.4266               595.6512               610.3786
 Red. masses --      3.6106                 3.8112                 1.4246
 Frc consts  --      0.7241                 0.7967                 0.3127
 IR Inten    --     13.1206                12.7772                78.4355

                     28                     29                     30
                      A                      A                      A
 Frequencies --    681.6881               706.6760               722.7832
 Red. masses --      4.2314                 4.9599                 5.0553
 Frc consts  --      1.1585                 1.4594                 1.5560
 IR Inten    --      0.5068                 8.8918                56.0200

                     31                     32                     33
                      A                      A                      A
 Frequencies --    734.5994               849.7838               858.8755
 Red. masses --      9.7496                 5.6186                 1.5625
 Frc consts  --      3.0998                 2.3905                 0.6791
 IR Inten    --      0.0448                 2.9171                 2.2306

                     34                     35                     36
                      A                      A                      A
 Frequencies --    872.5122               878.2750               953.5363
 Red. masses --      1.3931                 1.4456                 5.0387
 Frc consts  --      0.6248                 0.6570                 2.6993
 IR Inten    --     62.2296                13.3353                 1.5494

                     37                     38                     39
                      A                      A                      A
 Frequencies --   1006.8169              1018.4553              1035.4814
 Red. masses --      4.8812                 1.3591                 3.9033
 Frc consts  --      2.9153                 0.8306                 2.4659
 IR Inten    --    270.8703                18.4715                32.3910

                     40                     41                     42
                      A                      A                      A
 Frequencies --   1090.3942              1144.0385              1163.5685
 Red. masses --      4.7602                 1.1395                 1.6406
 Frc consts  --      3.3346                 0.8787                 1.3087
 IR Inten    --      3.1512               157.0142              1767.8282

                     43                     44                     45
                      A                      A                      A
 Frequencies --   1172.8740              1183.8525              1185.8194
 Red. masses --      2.4228                 1.2727                 1.2672
 Frc consts  --      1.9637                 1.0510                 1.0498
 IR Inten    --    212.6955                 1.3164                 0.7907

                     46                     47                     48
                      A                      A                      A
 Frequencies --   1218.7477              1220.1841              1246.5820
 Red. masses --      1.3871                 1.3657                 1.7411
 Frc consts  --      1.2139                 1.1980                 1.5941
 IR Inten    --     17.8475                 2.8321                17.6802

                     49                     50                     51
                      A                      A                      A
 Frequencies --   1280.1764              1299.4781              1319.0160
 Red. masses --      2.2260                 1.5880                 1.6416
 Frc consts  --      2.1494                 1.5800                 1.6827
 IR Inten    --    392.0541               226.3183               205.0732

                     52                     53                     54
                      A                      A                      A
 Frequencies --   1345.6113              1372.3151              1412.0093
 Red. masses --      1.5854                 3.6075                 3.0480
 Frc consts  --      1.6913                 4.0028                 3.5805
 IR Inten    --     52.2388                44.9938               773.8206

                     55                     56                     57
                      A                      A                      A
 Frequencies --   1437.5792              1489.2277              1494.2743
 Red. masses --      4.5361                 1.2620                 1.9671
 Frc consts  --      5.5233                 1.6490                 2.5878
 IR Inten    --    923.3467                31.4553               213.4477

                     58                     59                     60
                      A                      A                      A
 Frequencies --   1504.4548              1509.0825              1510.9064
 Red. masses --      2.0785                 1.0428                 1.0593
 Frc consts  --      2.7718                 1.3992                 1.4248
 IR Inten    --    529.7887                14.5673                69.5672

                     61                     62                     63
                      A                      A                      A
 Frequencies --   1511.6445              1512.1214              1538.6949
 Red. masses --      1.0433                 1.0674                 4.8810
 Frc consts  --      1.4046                 1.4379                 6.8087
 IR Inten    --     14.6411                73.8293               468.5630

                     64                     65                     66
                      A                      A                      A
 Frequencies --   1565.4713              1635.7710              1645.8302
 Red. masses --      4.9124                 5.0499                 4.4217
 Frc consts  --      7.0930                 7.9612                 7.0569
 IR Inten    --    770.4443               126.5704              1167.2033

                     67                     68                     69
                      A                      A                      A
 Frequencies --   1664.8517              1695.3972              3051.0178
 Red. masses --      5.4471                 5.6319                 1.0347
 Frc consts  --      8.8955                 9.5378                 5.6747
 IR Inten    --    131.0012               547.1788                28.1171

                     70                     71                     72
                      A                      A                      A
 Frequencies --   3060.3989              3125.6508              3138.9280
 Red. masses --      1.0337                 1.1080                 1.1087
 Frc consts  --      5.7042                 6.3780                 6.4359
 IR Inten    --     21.1673                22.2517                17.0169

                     73                     74                     75
                      A                      A                      A
 Frequencies --   3202.5005              3204.3091              3205.8331
 Red. masses --      1.1017                 1.0908                 1.1031
 Frc consts  --      6.6572                 6.5986                 6.6793
 IR Inten    --      4.8424                 0.7711                 3.8525

                     76                     77                     78
                      A                      A                      A
 Frequencies --   3251.5903              3262.0689              3272.8504
 Red. masses --      1.0916                 1.0923                 1.0904
 Frc consts  --      6.7999                 6.8480                 6.8818
 IR Inten    --      1.5419                 2.6332                 0.5042

                     79                     80                     81
                      A                      A                      A
 Frequencies --   3754.4233              3811.2287              3821.5072
 Red. masses --      1.0651                 1.0681                 1.0663
 Frc consts  --      8.8459                 9.1410                 9.1751
 IR Inten    --    391.3404                66.2636               757.3992

 - Thermochemistry -
 -------------------
 Temperature   298.150 Kelvin.  Pressure   1.00000 Atm.
 Atom     1 has atomic number  6 and mass  12.00000

 Molecular mass:   225.07630 amu.
 Principal axes and moments of inertia in atomic units:
                           1         2         3
     Eigenvalues --  2526.152416544.069119043.48254
           X            0.99999   0.00336   0.00001
           Y           -0.00336   0.99999   0.00100
           Z           -0.00001  -0.00100   1.00000
 This molecule is an asymmetric top.
 Rotational symmetry number  1.
 Warning -- assumption of classical behavior for rotation
           may cause significant error
 Rotational temperatures (Kelvin)      0.03429     0.01324     0.00958
 Rotational constants (GHZ):           0.71442     0.27578     0.19956
 Zero-point vibrational energy     612077.9 (Joules/Mol)
                                  146.29012 (Kcal/Mol)
 Warning -- explicit consideration of  27 degrees of freedom as
           vibrations may cause significant error
 Vibrational temperatures:     68.27    83.95    94.08   108.81   152.15
          (Kelvin)            206.15   253.36   256.50   290.06   297.84
                              349.97   363.07   376.66   419.83   449.27
                              489.38   528.22   550.39   601.23   606.75
                              725.26   768.75   774.81   810.94   839.42
                              857.01   878.20   980.80  1016.75  1039.92
                             1056.92  1222.65  1235.73  1255.35  1263.64
                             1371.92  1448.58  1465.33  1489.82  1568.83
                             1646.01  1674.11  1687.50  1703.30  1706.13
                             1753.50  1755.57  1793.55  1841.89  1869.66
                             1897.77  1936.03  1974.45  2031.56  2068.35
                             2142.66  2149.92  2164.57  2171.23  2173.85
                             2174.92  2175.60  2213.84  2252.36  2353.51
                             2367.98  2395.35  2439.30  4389.73  4403.23
                             4497.11  4516.21  4607.68  4610.28  4612.47
                             4678.31  4693.38  4708.90  5401.77  5483.50
                             5498.29

 Zero-point correction=                           0.233128 (Hartree/Particle)
 Thermal correction to Energy=                    0.249187
 Thermal correction to Enthalpy=                  0.250131
 Thermal correction to Gibbs Free Energy=         0.189376
 Sum of electronic and zero-point Energies=           -802.304435
 Sum of electronic and thermal Energies=              -802.288376
 Sum of electronic and thermal Enthalpies=            -802.287432
 Sum of electronic and thermal Free Energies=         -802.348187

                     E (Thermal)             CV                S
                      KCal/Mol        Cal/Mol-Kelvin    Cal/Mol-Kelvin
 Total                  156.367             59.635            127.870
 Electronic               0.000              0.000              0.000
 Translational            0.889              2.981             42.136
 Rotational               0.889              2.981             33.369
 Vibrational            154.590             53.674             52.365
 Vibration     1          0.595              1.979              4.921
 Vibration     2          0.596              1.974              4.512
 Vibration     3          0.597              1.971              4.288
 Vibration     4          0.599              1.965              4.001
 Vibration     5          0.605              1.945              3.346
 Vibration     6          0.616              1.910              2.760
 Vibration     7          0.628              1.872              2.369
 Vibration     8          0.629              1.869              2.346
 Vibration     9          0.638              1.838              2.118
 Vibration    10          0.641              1.830              2.070
 Vibration    11          0.659              1.774              1.779
 Vibration    12          0.664              1.759              1.714
 Vibration    13          0.669              1.743              1.650
 Vibration    14          0.687              1.689              1.464
 Vibration    15          0.701              1.650              1.350
 Vibration    16          0.720              1.595              1.212
 Vibration    17          0.740              1.540              1.092
 Vibration    18          0.752              1.507              1.029
 Vibration    19          0.781              1.431              0.899
 Vibration    20          0.784              1.423              0.886
 Vibration    21          0.859              1.241              0.648
 Vibration    22          0.889              1.174              0.578
 Vibration    23          0.894              1.165              0.568
 Vibration    24          0.919              1.110              0.517
 Vibration    25          0.940              1.067              0.479
 Vibration    26          0.953              1.041              0.457
 Vibration    27          0.969              1.010              0.432

 Optimization completed.
    -- Stationary point found.
 Normal termination of Gaussian 09 at Tue Dec 17 14:36:08 2024.
