 Gaussian 09, Revision E.01,
 Gaussian 09:  ES64L-G09RevE.01 30-Nov-2015

 -----------------------------------------------------
 # opt freq pbepbe/6-31+g(d,p) empiricaldispersion=gd3
 -----------------------------------------------------

 ----------
 [No Title]
 ----------
 Symbolic Z-matrix:
 Charge =  1 Multiplicity = 1

 SCF Done:  E(RPBE-PBE) =  -801.983425576     A.U. after   19 cycles
 SCF Done:  E(RPBE-PBE) =  -801.985656854     A.U. after   14 cycles
 SCF Done:  E(RPBE-PBE) =  -801.985741846     A.U. after   12 cycles
 SCF Done:  E(RPBE-PBE) =  -801.985753856     A.U. after   12 cycles
 SCF Done:  E(RPBE-PBE) =  -801.985757399     A.U. after   11 cycles
 SCF Done:  E(RPBE-PBE) =  -801.985761062     A.U. after   11 cycles
 SCF Done:  E(RPBE-PBE) =  -801.985763197     A.U. after   11 cycles
 SCF Done:  E(RPBE-PBE) =  -801.985763683     A.U. after   10 cycles
 Optimization completed.
    -- Stationary point found.
 Normal termination of Gaussian 09 at Tue Dec 17 14:38:58 2024.

 ----------------------------------------------------------------------
 #N Geom=AllCheck Guess=TCheck SCRF=Check GenChk RPBEPBE/6-31+G(d,p) Fr
 eq
 ----------------------------------------------------------------------

 Structure from the checkpoint file:  "pbeD3SAYang.chk"
 ----------
 [No Title]
 ----------
 Charge =  1 Multiplicity = 1

                         Standard orientation:
 ---------------------------------------------------------------------
 Center     Atomic      Atomic             Coordinates (Angstroms)
 Number     Number       Type             X           Y           Z
 ---------------------------------------------------------------------
      1          6           0       -2.415067    0.208037    0.000832
      2          6           0       -1.944454   -1.139749   -0.008117
      3          6           0       -0.567985   -1.362145   -0.012111
      4          6           0        0.358718   -0.271882   -0.008242
      5          6           0       -0.124342    1.074373    0.004111
      6          6           0       -1.491660    1.302427    0.006706
      7          8           0       -3.729953    0.431490    0.004845
      8          8           0       -2.915753   -2.077040   -0.011649
      9          6           0       -2.515748   -3.458980   -0.021268
     10          8           0       -2.128326    2.506003    0.016832
     11          6           0       -1.328923    3.704826    0.023264
     12          6           0        1.743284   -0.585765   -0.013462
     13          6           0        2.816271    0.311366   -0.020939
     14          6           0        4.141716   -0.119754    0.001044
     15          8           0        5.109581    0.792899   -0.131504
     16          8           0        4.441353   -1.414683    0.163063
     17          1           0       -0.177788   -2.381835   -0.019157
     18          1           0        0.572133    1.913251    0.011597
     19          1           0       -3.875834    1.405457    0.011829
     20          1           0       -3.452306   -4.030158   -0.022963
     21          1           0       -1.934929   -3.694370   -0.930667
     22          1           0       -1.931146   -3.705980    0.882607
     23          1           0       -2.045692    4.535096    0.029778
     24          1           0       -0.700914    3.745414    0.929884
     25          1           0       -0.703840    3.757024   -0.884785
     26          1           0        1.996213   -1.652935   -0.009896
     27          1           0        2.680047    1.393874   -0.045847
     28          1           0        5.989659    0.475278    0.157529
     29          1           0        5.338310   -1.645999   -0.153524
 ---------------------------------------------------------------------

 SCF Done:  E(RPBE-PBE) =  -801.985763683     A.U. after    1 cycles

 The electronic state is 1-A.
 Alpha  occ. eigenvalues --  -19.00441 -19.00375 -18.96007 -18.95780 -18.93836
 Alpha  occ. eigenvalues --  -10.20580 -10.11821 -10.10774 -10.10119 -10.08048
 Alpha  occ. eigenvalues --  -10.07615 -10.06489 -10.06209 -10.06115 -10.05064
 Alpha  occ. eigenvalues --  -10.04804  -1.20437  -1.14044  -1.13410  -1.11310
 Alpha  occ. eigenvalues --   -1.10050  -0.92389  -0.88691  -0.83790  -0.82522
 Alpha  occ. eigenvalues --   -0.78126  -0.77457  -0.74535  -0.72671  -0.71211
 Alpha  occ. eigenvalues --   -0.67588  -0.65006  -0.64260  -0.61681  -0.59798
 Alpha  occ. eigenvalues --   -0.58361  -0.57498  -0.57337  -0.55437  -0.55169
 Alpha  occ. eigenvalues --   -0.54484  -0.53275  -0.52454  -0.50466  -0.50019
 Alpha  occ. eigenvalues --   -0.49739  -0.48760  -0.48198  -0.47083  -0.46813
 Alpha  occ. eigenvalues --   -0.46031  -0.44679  -0.43339  -0.43210  -0.41960
 Alpha  occ. eigenvalues --   -0.41024  -0.38094  -0.33329  -0.31897
 Alpha virt. eigenvalues --   -0.26120  -0.17401  -0.16879  -0.15342  -0.12529
 Alpha virt. eigenvalues --   -0.11997  -0.11572  -0.10962  -0.10641  -0.08605
 Alpha virt. eigenvalues --   -0.08337  -0.07585  -0.07413  -0.06640  -0.06040

 Mulliken charges:
               1
     1  C   -0.385686
     2  C    0.496895
     3  C    0.042474
     4  C   -0.298994
     5  C   -0.212414
     6  C    0.349075
     7  O   -0.397117
     8  O   -0.270303
     9  C   -0.175379
    10  O   -0.369634
    11  C   -0.182127
    12  C    0.092308
    13  C   -0.634954
    14  C    0.782935
    15  O   -0.373378
    16  O   -0.414618
    17  H    0.154834
    18  H    0.139117
    19  H    0.418044
    20  H    0.199489
    21  H    0.178911
    22  H    0.179211
    23  H    0.198882
    24  H    0.185032
    25  H    0.185032
    26  H    0.177696
    27  H    0.171509
    28  H    0.381224
    29  H    0.381937
 Sum of Mulliken charges =   1.00000

 Dipole moment (field-independent basis, Debye):
    X=              8.8931    Y=              0.0897    Z=             -0.0415  Tot=              8.8937
 Quadrupole moment (field-independent basis, Debye-Ang):
   XX=            -10.4717   YY=            -55.1244   ZZ=            -94.6312
   XY=            -10.5491   XZ=              0.1540   YZ=              1.5551

  Exact polarizability: 355.043  -6.717 177.956  -0.265  -0.223  83.689
 Approx polarizability:1202.648 -67.168 314.115  -1.560  -1.563 140.573

                      1                      2                      3
                      A                      A                      A
 Frequencies --     45.2557                57.0951                67.4828
 Red. masses --      6.3640                 5.5166                 3.2523
 Frc consts  --      0.0077                 0.0106                 0.0087
 IR Inten    --      0.3918                 1.1831                 7.9513

                      4                      5                      6
                      A                      A                      A
 Frequencies --     70.4547               113.7662               140.8388
 Red. masses --      5.0845                 3.7111                 5.5094
 Frc consts  --      0.0149                 0.0283                 0.0644
 IR Inten    --      0.7860                 0.0360                 0.9927

                      7                      8                      9
                      A                      A                      A
 Frequencies --    167.3246               177.2064               187.2874
 Red. masses --      3.8891                 3.1331                 1.5724
 Frc consts  --      0.0642                 0.0580                 0.0325
 IR Inten    --      2.4777                10.3448                 3.5106

                     10                     11                     12
                      A                      A                      A
 Frequencies --    192.9313               235.9131               238.9186
 Red. masses --      3.3461                 1.3277                 4.0006
 Frc consts  --      0.0734                 0.0435                 0.1345
 IR Inten    --      9.3386                 4.4017                 2.3263

                     13                     14                     15
                      A                      A                      A
 Frequencies --    259.1403               289.9530               299.2679
 Red. masses --      1.8204                 2.3960                 2.8357
 Frc consts  --      0.0720                 0.1187                 0.1496
 IR Inten    --     25.2400                58.5919                83.2786

                     16                     17                     18
                      A                      A                      A
 Frequencies --    334.6166               351.6800               366.7555
 Red. masses --      1.8972                 4.3555                 4.2691
 Frc consts  --      0.1252                 0.3174                 0.3383
 IR Inten    --    135.5376                 3.4151                 0.6471

                     19                     20                     21
                      A                      A                      A
 Frequencies --    393.5528               401.5999               483.9537
 Red. masses --      1.2577                 2.8301                 6.0420
 Frc consts  --      0.1148                 0.2689                 0.8338
 IR Inten    --    207.4143                30.5978                 3.3603

                     22                     23                     24
                      A                      A                      A
 Frequencies --    509.2732               514.4158               537.7557
 Red. masses --      6.7278                 4.8574                 2.6963
 Frc consts  --      1.0281                 0.7573                 0.4594
 IR Inten    --      4.2946                16.4323                15.5719

                     25                     26                     27
                      A                      A                      A
 Frequencies --    563.9534               570.2645               609.9593
 Red. masses --      3.6670                 3.7015                 1.2949
 Frc consts  --      0.6871                 0.7092                 0.2838
 IR Inten    --      9.7702                 4.4314                77.2865

                     28                     29                     30
                      A                      A                      A
 Frequencies --    644.6877               658.2839               691.7776
 Red. masses --      4.9096                 4.4351                 5.0505
 Frc consts  --      1.2022                 1.1323                 1.4240
 IR Inten    --      4.1574                 6.7321                43.1394

                     31                     32                     33
                      A                      A                      A
 Frequencies --    707.7644               785.8192               805.0688
 Red. masses --      9.3873                 1.5560                 1.3531
 Frc consts  --      2.7706                 0.5661                 0.5167
 IR Inten    --      0.1755                 6.5898                34.3989

                     34                     35                     36
                      A                      A                      A
 Frequencies --    812.2228               832.9037               905.7982
 Red. masses --      5.6646                 1.5727                 5.3789
 Frc consts  --      2.2018                 0.6428                 2.6002
 IR Inten    --      2.2639                16.1402                 5.9296

                     37                     38                     39
                      A                      A                      A
 Frequencies --    943.7616               953.2202               986.6067
 Red. masses --      1.3316                 4.5497                 4.4897
 Frc consts  --      0.6988                 2.4357                 2.5748
 IR Inten    --     50.9413               151.7363                14.7287

                     40                     41                     42
                      A                      A                      A
 Frequencies --   1030.2399              1110.7478              1122.1462
 Red. masses --      4.1900                 3.1091                 1.1561
 Frc consts  --      2.6202                 2.2601                 0.8577
 IR Inten    --      0.7038               255.4623               191.7088

                     43                     44                     45
                      A                      A                      A
 Frequencies --   1127.3785              1130.8768              1134.8434
 Red. masses --      1.2727                 1.2653                 1.4914
 Frc consts  --      0.9530                 0.9534                 1.1316
 IR Inten    --      0.6489                 0.3628               699.9238

                     46                     47                     48
                      A                      A                      A
 Frequencies --   1165.8170              1167.3859              1190.8070
 Red. masses --      1.4210                 1.3562                 1.7395
 Frc consts  --      1.1379                 1.0889                 1.4533
 IR Inten    --     12.2187                 4.6842                34.7344

                     49                     50                     51
                      A                      A                      A
 Frequencies --   1224.4314              1242.1652              1267.6273
 Red. masses --      1.8475                 1.7196                 1.5843
 Frc consts  --      1.6320                 1.5633                 1.4999
 IR Inten    --    273.3094                 2.9249               250.5341

                     52                     53                     54
                      A                      A                      A
 Frequencies --   1288.7779              1309.9254              1352.4077
 Red. masses --      1.6015                 3.1581                 2.9430
 Frc consts  --      1.5672                 3.1928                 3.1714
 IR Inten    --      0.5833                56.3115               267.8360

                     55                     56                     57
                      A                      A                      A
 Frequencies --   1393.5581              1417.5787              1424.9175
 Red. masses --      3.7282                 3.0483                 1.3164
 Frc consts  --      4.2658                 3.6092                 1.5748
 IR Inten    --    499.7910               192.4980                24.3798

                     58                     59                     60
                      A                      A                      A
 Frequencies --   1438.2262              1446.5194              1449.1836
 Red. masses --      1.5264                 1.0435                 1.0442
 Frc consts  --      1.8602                 1.2865                 1.2920
 IR Inten    --     72.4060                14.3393                14.6240

                     61                     62                     63
                      A                      A                      A
 Frequencies --   1450.2810              1451.3832              1490.5540
 Red. masses --      1.0556                 1.0980                 5.4006
 Frc consts  --      1.3082                 1.3628                 7.0695
 IR Inten    --     35.4270               121.8199               301.5622

                     64                     65                     66
                      A                      A                      A
 Frequencies --   1495.6635              1557.4751              1573.7751
 Red. masses --      4.8498                 4.6214                 5.5386
 Frc consts  --      6.3920                 6.6050                 8.0823
 IR Inten    --    451.5796                66.4014               246.2656

                     67                     68                     69
                      A                      A                      A
 Frequencies --   1599.3153              1633.4528              2962.7643
 Red. masses --      5.2832                 5.3455                 1.0337
 Frc consts  --      7.9619                 8.4033                 5.3461
 IR Inten    --    368.4357               899.3019                29.1789

                     70                     71                     72
                      A                      A                      A
 Frequencies --   2971.1477              3041.0965              3052.8944
 Red. masses --      1.0328                 1.1073                 1.1080
 Frc consts  --      5.3717                 6.0338                 6.0841
 IR Inten    --     22.1493                19.8488                15.5549

                     73                     74                     75
                      A                      A                      A
 Frequencies --   3109.9945              3117.8347              3120.5704
 Red. masses --      1.0893                 1.1009                 1.1022
 Frc consts  --      6.2073                 6.3054                 6.3235
 IR Inten    --      0.9484                 3.6768                 2.7579

                     76                     77                     78
                      A                      A                      A
 Frequencies --   3158.5784              3165.2444              3173.2329
 Red. masses --      1.0902                 1.0904                 1.0892
 Frc consts  --      6.4083                 6.4367                 6.4619
 IR Inten    --      1.3818                 2.1405                 0.3777

                     79                     80                     81
                      A                      A                      A
 Frequencies --   3577.5657              3663.3789              3672.7796
 Red. masses --      1.0649                 1.0675                 1.0658
 Frc consts  --      8.0303                 8.4404                 8.4706
 IR Inten    --    304.4909                88.8148               482.1539

 - Thermochemistry -
 -------------------
 Temperature   298.150 Kelvin.  Pressure   1.00000 Atm.
 Atom     1 has atomic number  6 and mass  12.00000

 Molecular mass:   225.07630 amu.
 Principal axes and moments of inertia in atomic units:
                           1         2         3
     Eigenvalues --  2563.718806666.661909201.07815
           X            0.99999   0.00365   0.00002
           Y           -0.00365   0.99999   0.00128
           Z           -0.00001  -0.00128   1.00000
 This molecule is an asymmetric top.
 Rotational symmetry number  1.
 Warning -- assumption of classical behavior for rotation
           may cause significant error
 Rotational temperatures (Kelvin)      0.03378     0.01299     0.00941
 Rotational constants (GHZ):           0.70395     0.27071     0.19614
 Zero-point vibrational energy     588461.5 (Joules/Mol)
                                  140.64566 (Kcal/Mol)
 Warning -- explicit consideration of  27 degrees of freedom as
           vibrations may cause significant error
 Vibrational temperatures:     65.11    82.15    97.09   101.37   163.68
          (Kelvin)            202.64   240.74   254.96   269.46   277.58
                              339.43   343.75   372.84   417.18   430.58
                              481.44   505.99   527.68   566.23   577.81
                              696.30   732.73   740.13   773.71   811.40
                              820.48   877.59   927.56   947.12   995.31
                             1018.31  1130.62  1158.31  1168.61  1198.36
                             1303.24  1357.86  1371.47  1419.51  1482.28
                             1598.12  1614.52  1622.04  1627.08  1632.78
                             1677.35  1679.61  1713.30  1761.68  1787.20
                             1823.83  1854.26  1884.69  1945.81  2005.02
                             2039.58  2050.14  2069.28  2081.22  2085.05
                             2086.63  2088.21  2144.57  2151.92  2240.86
                             2264.31  2301.06  2350.17  4262.75  4274.81
                             4375.45  4392.43  4474.58  4485.86  4489.80
                             4544.48  4554.08  4565.57  5147.31  5270.78
                             5284.30

 Zero-point correction=                           0.224133 (Hartree/Particle)
 Thermal correction to Energy=                    0.240702
 Thermal correction to Enthalpy=                  0.241646
 Thermal correction to Gibbs Free Energy=         0.179942
 Sum of electronic and zero-point Energies=           -801.761631
 Sum of electronic and thermal Energies=              -801.745062
 Sum of electronic and thermal Enthalpies=            -801.744118
 Sum of electronic and thermal Free Energies=         -801.805822

                     E (Thermal)             CV                S
                      KCal/Mol        Cal/Mol-Kelvin    Cal/Mol-Kelvin
 Total                  151.043             61.834            129.868
 Electronic               0.000              0.000              0.000
 Translational            0.889              2.981             42.136
 Rotational               0.889              2.981             33.419
 Vibrational            149.265             55.873             54.312
 Vibration     1          0.595              1.979              5.015
 Vibration     2          0.596              1.975              4.555
 Vibration     3          0.598              1.970              4.225
 Vibration     4          0.598              1.968              4.141
 Vibration     5          0.607              1.938              3.204
 Vibration     6          0.615              1.912              2.792
 Vibration     7          0.624              1.883              2.465
 Vibration     8          0.628              1.870              2.358
 Vibration     9          0.632              1.857              2.255
 Vibration    10          0.635              1.850              2.199
 Vibration    11          0.655              1.786              1.833
 Vibration    12          0.657              1.781              1.811
 Vibration    13          0.668              1.747              1.668
 Vibration    14          0.686              1.692              1.474
 Vibration    15          0.692              1.675              1.421
 Vibration    16          0.716              1.606              1.238
 Vibration    17          0.728              1.572              1.159
 Vibration    18          0.740              1.541              1.093
 Vibration    19          0.761              1.484              0.987
 Vibration    20          0.767              1.467              0.957
 Vibration    21          0.840              1.286              0.699
 Vibration    22          0.864              1.229              0.635
 Vibration    23          0.869              1.218              0.623
 Vibration    24          0.893              1.167              0.570
 Vibration    25          0.920              1.109              0.516
 Vibration    26          0.926              1.096              0.504
 Vibration    27          0.969              1.011              0.433

 Optimization completed.
    -- Stationary point found.
 Normal termination of Gaussian 09 at Tue Dec 17 14:41:22 2024.
