 Gaussian 09, Revision E.01,
 Gaussian 09:  ES64L-G09RevE.01 30-Nov-2015

 -----------------------------------------------------
 # opt freq pbepbe/6-31+g(d,p) empiricaldispersion=gd3
 -----------------------------------------------------

 ----------
 [No Title]
 ----------
 Symbolic Z-matrix:
 Charge =  0 Multiplicity = 1

 SCF Done:  E(RPBE-PBE) =  -801.633386860     A.U. after   17 cycles
 SCF Done:  E(RPBE-PBE) =  -801.635648703     A.U. after   14 cycles
 SCF Done:  E(RPBE-PBE) =  -801.635732865     A.U. after   12 cycles
 SCF Done:  E(RPBE-PBE) =  -801.635745394     A.U. after   11 cycles
 SCF Done:  E(RPBE-PBE) =  -801.635746313     A.U. after   10 cycles
 SCF Done:  E(RPBE-PBE) =  -801.635746137     A.U. after   10 cycles
 SCF Done:  E(RPBE-PBE) =  -801.635746554     A.U. after    9 cycles
 Optimization completed.
    -- Stationary point found.
 Normal termination of Gaussian 09 at Tue Dec 17 14:14:15 2024.

 ----------------------------------------------------------------------
 #N Geom=AllCheck Guess=TCheck SCRF=Check GenChk RPBEPBE/6-31+G(d,p) Fr
 eq
 ----------------------------------------------------------------------

 Structure from the checkpoint file:  "pbeD3SA.chk"
 ----------
 [No Title]
 ----------
 Charge =  0 Multiplicity = 1

                         Standard orientation:
 ---------------------------------------------------------------------
 Center     Atomic      Atomic             Coordinates (Angstroms)
 Number     Number       Type             X           Y           Z
 ---------------------------------------------------------------------
      1          6           0       -2.400620    0.215640    0.000007
      2          6           0       -1.926527   -1.115703    0.000002
      3          6           0       -0.542683   -1.349811   -0.000003
      4          6           0        0.384537   -0.279000   -0.000003
      5          6           0       -0.096445    1.053629    0.000003
      6          6           0       -1.471938    1.285405    0.000008
      7          8           0       -3.740030    0.455507    0.000013
      8          8           0       -2.895798   -2.079630    0.000001
      9          6           0       -2.464821   -3.442406    0.000010
     10          8           0       -2.087131    2.519916    0.000016
     11          6           0       -1.250239    3.680690    0.000015
     12          6           0        1.803585   -0.600598   -0.000011
     13          6           0        2.859255    0.259231   -0.000032
     14          6           0        4.233690   -0.258033   -0.000039
     15          8           0        5.153999    0.767217   -0.000014
     16          8           0        4.581123   -1.439403    0.000008
     17          1           0       -0.158584   -2.372112   -0.000008
     18          1           0        0.605676    1.888472    0.000006
     19          1           0       -3.849751    1.429928    0.000017
     20          1           0       -3.385777   -4.041090    0.000019
     21          1           0       -1.871959   -3.678774   -0.903252
     22          1           0       -1.871951   -3.678759    0.903272
     23          1           0       -0.614811    3.711237    0.903725
     24          1           0       -0.614819    3.711240   -0.903700
     25          1           0       -1.933236    4.540763    0.000019
     26          1           0        2.056493   -1.669489   -0.000000
     27          1           0        2.743393    1.346609   -0.000047
     28          1           0        6.031245    0.328859    0.000011
 ---------------------------------------------------------------------

 SCF Done:  E(RPBE-PBE) =  -801.635746554     A.U. after    1 cycles

 The electronic state is 1-A.
 Alpha  occ. eigenvalues --  -18.84290 -18.82743 -18.82535 -18.82192 -18.76233
 Alpha  occ. eigenvalues --  -10.02142  -9.98100  -9.97841  -9.97626  -9.97583
 Alpha  occ. eigenvalues --   -9.96256  -9.93066  -9.92945  -9.92089  -9.91956
 Alpha  occ. eigenvalues --   -9.91542  -1.01275  -1.00357  -0.99393  -0.97782
 Alpha  occ. eigenvalues --   -0.91712  -0.79364  -0.73611  -0.70573  -0.69088
 Alpha  occ. eigenvalues --   -0.65807  -0.64116  -0.60927  -0.56077  -0.55415
 Alpha  occ. eigenvalues --   -0.52119  -0.50081  -0.49066  -0.46362  -0.45961
 Alpha  occ. eigenvalues --   -0.44261  -0.43950  -0.42540  -0.42100  -0.41596
 Alpha  occ. eigenvalues --   -0.40797  -0.38884  -0.38697  -0.38024  -0.36801
 Alpha  occ. eigenvalues --   -0.36737  -0.34649  -0.33399  -0.32597  -0.32455
 Alpha  occ. eigenvalues --   -0.31764  -0.31689  -0.29986  -0.29449  -0.27216
 Alpha  occ. eigenvalues --   -0.24301  -0.22852  -0.21105  -0.18770
 Alpha virt. eigenvalues --   -0.09767  -0.03297  -0.02526  -0.01935  -0.01746
 Alpha virt. eigenvalues --   -0.00974  -0.00436   0.00920   0.01812   0.02412
 Alpha virt. eigenvalues --    0.02503   0.03421   0.03516   0.04392   0.04530

 Mulliken charges:
               1
     1  C   -0.432659
     2  C    0.469571
     3  C    0.084053
     4  C   -0.450091
     5  C   -0.222762
     6  C    0.340379
     7  O   -0.471350
     8  O   -0.283486
     9  C   -0.182808
    10  O   -0.379192
    11  C   -0.189614
    12  C    0.162622
    13  C   -0.622498
    14  C    0.705127
    15  O   -0.417092
    16  O   -0.473498
    17  H    0.136646
    18  H    0.124121
    19  H    0.398091
    20  H    0.173440
    21  H    0.169133
    22  H    0.169133
    23  H    0.175254
    24  H    0.175254
    25  H    0.172550
    26  H    0.165773
    27  H    0.140503
    28  H    0.363398
 Sum of Mulliken charges =  -0.00000

 Dipole moment (field-independent basis, Debye):
    X=             -1.8416    Y=              2.5408    Z=              0.0000  Tot=              3.1380
 Quadrupole moment (field-independent basis, Debye-Ang):
   XX=           -104.2652   YY=            -74.5447   ZZ=            -97.0394
   XY=              4.8908   XZ=             -0.0001   YZ=              0.0001

  Exact polarizability: 282.546   1.620 186.356  -0.001  -0.000  88.685
 Approx polarizability: 601.789  -0.144 338.955  -0.002  -0.001 148.507

                      1                      2                      3
                      A                      A                      A
 Frequencies --     33.8929                59.1706                63.4075
 Red. masses --      6.7650                 3.1088                 6.7729
 Frc consts  --      0.0046                 0.0064                 0.0160
 IR Inten    --      0.3684                 8.0008                 0.0104

                      4                      5                      6
                      A                      A                      A
 Frequencies --     68.2763                96.6276               136.1416
 Red. masses --      5.7103                 3.6086                 4.1679
 Frc consts  --      0.0157                 0.0199                 0.0455
 IR Inten    --      0.3999                 0.0430                 0.0491

                      7                      8                      9
                      A                      A                      A
 Frequencies --    156.1941               171.3928               193.6775
 Red. masses --      3.9146                 4.2443                 4.6638
 Frc consts  --      0.0563                 0.0735                 0.1031
 IR Inten    --      3.8902                 4.0126                 1.7303

                     10                     11                     12
                      A                      A                      A
 Frequencies --    198.8942               234.2529               241.6313
 Red. masses --      1.5053                 1.3952                 5.4105
 Frc consts  --      0.0351                 0.0451                 0.1861
 IR Inten    --      0.0316                 0.1336                 1.1595

                     13                     14                     15
                      A                      A                      A
 Frequencies --    269.0667               287.5944               291.2531
 Red. masses --      2.0408                 6.7656                 1.9276
 Frc consts  --      0.0870                 0.3297                 0.0963
 IR Inten    --      0.1943                 5.7372                 0.0304

                     16                     17                     18
                      A                      A                      A
 Frequencies --    355.7789               366.5493               378.5862
 Red. masses --      4.2791                 4.5258                 4.3103
 Frc consts  --      0.3191                 0.3583                 0.3640
 IR Inten    --      0.6327                 1.3311                 0.7653

                     19                     20                     21
                      A                      A                      A
 Frequencies --    485.0574               490.2367               494.1098
 Red. masses --      6.3809                 1.1069                 4.9568
 Frc consts  --      0.8845                 0.1567                 0.7130
 IR Inten    --      9.3528                89.0292                26.9475

                     22                     23                     24
                      A                      A                      A
 Frequencies --    520.1880               549.2479               560.5607
 Red. masses --      6.8442                 2.2402                 3.6001
 Frc consts  --      1.0912                 0.3982                 0.6665
 IR Inten    --      1.8125                11.5276                 6.6722

                     25                     26                     27
                      A                      A                      A
 Frequencies --    579.7734               596.4533               648.8598
 Red. masses --      5.3020                 1.6397                 4.2213
 Frc consts  --      1.0500                 0.3437                 1.0471
 IR Inten    --     68.9093                78.2807                 6.2579

                     28                     29                     30
                      A                      A                      A
 Frequencies --    687.0333               701.8560               717.2812
 Red. masses --      4.9516                 7.7225                 3.6698
 Frc consts  --      1.3770                 2.2413                 1.1124
 IR Inten    --     13.2839                 0.1490                14.3834

                     31                     32                     33
                      A                      A                      A
 Frequencies --    783.2505               798.4656               804.0840
 Red. masses --      1.4489                 1.4861                 5.6124
 Frc consts  --      0.5237                 0.5582                 2.1380
 IR Inten    --     18.4353                33.0008                 9.1279

                     34                     35                     36
                      A                      A                      A
 Frequencies --    837.4602               908.0636               950.7779
 Red. masses --      2.0091                 5.3821                 4.1684
 Frc consts  --      0.8302                 2.6148                 2.2201
 IR Inten    --      8.7305                 9.0554                 7.9443

                     37                     38                     39
                      A                      A                      A
 Frequencies --    975.0896               987.8439              1047.1814
 Red. masses --      1.1694                 4.2015                 5.0568
 Frc consts  --      0.6551                 2.4157                 3.2672
 IR Inten    --     29.5902                 4.4849                 3.9931

                     40                     41                     42
                      A                      A                      A
 Frequencies --   1091.7529              1118.1585              1128.9646
 Red. masses --      2.3373                 3.8434                 1.2764
 Frc consts  --      1.6414                 2.8312                 0.9585
 IR Inten    --    723.1238               260.2214                 0.5709

                     43                     44                     45
                      A                      A                      A
 Frequencies --   1132.4037              1159.3669              1169.6328
 Red. masses --      1.2693                 1.6173                 1.3893
 Frc consts  --      0.9590                 1.2808                 1.1198
 IR Inten    --      0.2471                33.5024                 5.4159

                     46                     47                     48
                      A                      A                      A
 Frequencies --   1178.2780              1214.7088              1221.7665
 Red. masses --      1.6074                 1.7013                 1.4833
 Frc consts  --      1.3148                 1.4790                 1.3045
 IR Inten    --     30.2401               216.4520                55.9944

                     49                     50                     51
                      A                      A                      A
 Frequencies --   1258.8164              1268.5061              1301.0288
 Red. masses --      2.9055                 1.5691                 1.4238
 Frc consts  --      2.7126                 1.4876                 1.4199
 IR Inten    --     13.9564               278.0727                13.2914

                     52                     53                     54
                      A                      A                      A
 Frequencies --   1316.9832              1359.5714              1402.7994
 Red. masses --      2.4196                 4.0510                 2.9786
 Frc consts  --      2.4726                 4.4118                 3.4534
 IR Inten    --    209.8897                84.4013               137.4196

                     55                     56                     57
                      A                      A                      A
 Frequencies --   1420.4523              1435.9756              1442.9020
 Red. masses --      1.4952                 1.3432                 1.0438
 Frc consts  --      1.7775                 1.6318                 1.2804
 IR Inten    --     27.0646                 7.8257                10.1757

                     58                     59                     60
                      A                      A                      A
 Frequencies --   1445.7889              1456.2002              1457.1735
 Red. masses --      1.0445                 2.7613                 1.1085
 Frc consts  --      1.2864                 3.4499                 1.3868
 IR Inten    --     10.1062               120.8296                77.0598

                     61                     62                     63
                      A                      A                      A
 Frequencies --   1458.1966              1509.6174              1589.1009
 Red. masses --      1.0744                 4.6568                 6.4498
 Frc consts  --      1.3460                 6.2527                 9.5962
 IR Inten    --     42.1194               302.4131               155.8885

                     64                     65                     66
                      A                      A                      A
 Frequencies --   1600.1349              1632.1220              1720.3366
 Red. masses --      6.0379                 6.3369                 8.5447
 Frc consts  --      9.1085                 9.9456                14.8996
 IR Inten    --    176.8953               342.3787               324.6064

                     67                     68                     69
                      A                      A                      A
 Frequencies --   2945.6585              2954.6762              3014.1773
 Red. masses --      1.0342                 1.0333                 1.1060
 Frc consts  --      5.2872                 5.3149                 5.9204
 IR Inten    --     57.5961                44.5926                33.1821

                     70                     71                     72
                      A                      A                      A
 Frequencies --   3026.6043              3088.3427              3094.0182
 Red. masses --      1.1066                 1.0884                 1.0994
 Frc consts  --      5.9724                 6.1165                 6.2011
 IR Inten    --     27.3170                 1.6033                16.9768

                     73                     74                     75
                      A                      A                      A
 Frequencies --   3097.4846              3135.4713              3151.1935
 Red. masses --      1.1008                 1.0897                 1.0894
 Frc consts  --      6.2224                 6.3122                 6.3736
 IR Inten    --     14.3435                 7.7439                 3.1838

                     76                     77                     78
                      A                      A                      A
 Frequencies --   3161.6627              3632.1905              3648.3202
 Red. masses --      1.0892                 1.0649                 1.0640
 Frc consts  --      6.4147                 8.2773                 8.3441
 IR Inten    --      3.3550               148.7208                87.8302

 - Thermochemistry -
 -------------------
 Temperature   298.150 Kelvin.  Pressure   1.00000 Atm.
 Atom     1 has atomic number  6 and mass  12.00000

 Molecular mass:   224.06847 amu.
 Principal axes and moments of inertia in atomic units:
                           1         2         3
     Eigenvalues --  2536.404466668.870029181.77183
           X            0.99994   0.01058   0.00000
           Y           -0.01058   0.99994  -0.00000
           Z           -0.00000   0.00000   1.00000
 This molecule is an asymmetric top.
 Rotational symmetry number  1.
 Warning -- assumption of classical behavior for rotation
           may cause significant error
 Rotational temperatures (Kelvin)      0.03415     0.01299     0.00943
 Rotational constants (GHZ):           0.71154     0.27062     0.19656
 Zero-point vibrational energy     557255.2 (Joules/Mol)
                                  133.18720 (Kcal/Mol)
 Warning -- explicit consideration of  26 degrees of freedom as
           vibrations may cause significant error
 Vibrational temperatures:     48.76    85.13    91.23    98.23   139.03
          (Kelvin)            195.88   224.73   246.60   278.66   286.16
                              337.04   347.65   387.13   413.78   419.05
                              511.89   527.38   544.70   697.89   705.34
                              710.91   748.43   790.24   806.52   834.16
                              858.16   933.56   988.49  1009.81  1032.01
                             1126.92  1148.81  1156.90  1204.92  1306.50
                             1367.96  1402.93  1421.29  1506.66  1570.79
                             1608.78  1624.33  1629.27  1668.07  1682.84
                             1695.28  1747.69  1757.85  1811.15  1825.10
                             1871.89  1894.84  1956.12  2018.31  2043.71
                             2066.05  2076.01  2080.17  2095.14  2096.55
                             2098.02  2172.00  2286.36  2302.23  2348.26
                             2475.18  4238.14  4251.11  4336.72  4354.60
                             4443.43  4451.60  4456.58  4511.24  4533.86
                             4548.92  5225.91  5249.11

 Zero-point correction=                           0.212247 (Hartree/Particle)
 Thermal correction to Energy=                    0.228415
 Thermal correction to Enthalpy=                  0.229359
 Thermal correction to Gibbs Free Energy=         0.167877
 Sum of electronic and zero-point Energies=           -801.423499
 Sum of electronic and thermal Energies=              -801.407331
 Sum of electronic and thermal Enthalpies=            -801.406387
 Sum of electronic and thermal Free Energies=         -801.467870

                     E (Thermal)             CV                S
                      KCal/Mol        Cal/Mol-Kelvin    Cal/Mol-Kelvin
 Total                  143.333             59.781            129.401
 Electronic               0.000              0.000              0.000
 Translational            0.889              2.981             42.123
 Rotational               0.889              2.981             33.407
 Vibrational            141.555             53.820             53.872
 Vibration     1          0.594              1.983              5.587
 Vibration     2          0.597              1.974              4.485
 Vibration     3          0.597              1.972              4.348
 Vibration     4          0.598              1.969              4.202
 Vibration     5          0.603              1.952              3.521
 Vibration     6          0.614              1.917              2.857
 Vibration     7          0.620              1.896              2.595
 Vibration     8          0.626              1.878              2.420
 Vibration     9          0.635              1.849              2.192
 Vibration    10          0.637              1.841              2.143
 Vibration    11          0.654              1.788              1.846
 Vibration    12          0.658              1.777              1.791
 Vibration    13          0.673              1.730              1.602
 Vibration    14          0.685              1.697              1.488
 Vibration    15          0.687              1.690              1.467
 Vibration    16          0.731              1.563              1.140
 Vibration    17          0.739              1.541              1.094
 Vibration    18          0.749              1.516              1.045
 Vibration    19          0.841              1.283              0.697
 Vibration    20          0.846              1.272              0.683
 Vibration    21          0.850              1.263              0.673
 Vibration    22          0.875              1.205              0.610
 Vibration    23          0.905              1.141              0.546
 Vibration    24          0.916              1.117              0.523
 Vibration    25          0.936              1.075              0.486
 Vibration    26          0.954              1.039              0.456

 Optimization completed.
    -- Stationary point found.
 Normal termination of Gaussian 09 at Tue Dec 17 14:16:18 2024.
