 Gaussian 09, Revision E.01,
 Gaussian 09:  ES64L-G09RevE.01 30-Nov-2015

 ------------------------
 # opt freq m062x/cc-pvtz
 ------------------------

 ----------
 [No Title]
 ----------
 Symbolic Z-matrix:
 Charge =  1 Multiplicity = 1

 SCF Done:  E(RM062X) =  -802.826014815     A.U. after   15 cycles
 SCF Done:  E(RM062X) =  -802.826796416     A.U. after   11 cycles
 SCF Done:  E(RM062X) =  -802.826812829     A.U. after    8 cycles
 SCF Done:  E(RM062X) =  -802.826813984     A.U. after    7 cycles
 Optimization completed.
    -- Stationary point found.
 Normal termination of Gaussian 09 at Thu Dec 19 17:11:09 2024.

 -------------------------------------------------------------------
 #N Geom=AllCheck Guess=TCheck SCRF=Check GenChk RM062X/CC-pVTZ Freq
 -------------------------------------------------------------------

 Structure from the checkpoint file:  "ccpvTZSAYang.chk"
 ----------
 [No Title]
 ----------
 Charge =  1 Multiplicity = 1

                         Standard orientation:
 ---------------------------------------------------------------------
 Center     Atomic      Atomic             Coordinates (Angstroms)
 Number     Number       Type             X           Y           Z
 ---------------------------------------------------------------------
      1          6           0       -2.388964    0.198646   -0.000034
      2          6           0       -1.916573   -1.128964   -0.000029
      3          6           0       -0.555781   -1.341476   -0.000009
      4          6           0        0.349888   -0.256555   -0.000009
      5          6           0       -0.134844    1.070899   -0.000024
      6          6           0       -1.487411    1.288375   -0.000032
      7          8           0       -3.690297    0.409545   -0.000047
      8          8           0       -2.867299   -2.069625   -0.000055
      9          6           0       -2.453254   -3.425673    0.000105
     10          8           0       -2.113734    2.482824   -0.000061
     11          6           0       -1.311011    3.654793    0.000151
     12          6           0        1.724465   -0.555915   -0.000002
     13          6           0        2.778100    0.336088    0.000007
     14          6           0        4.087160   -0.113683    0.000023
     15          8           0        5.051981    0.772775    0.000031
     16          8           0        4.359811   -1.397931   -0.000127
     17          1           0       -0.162979   -2.347637   -0.000000
     18          1           0        0.549276    1.904851   -0.000032
     19          1           0       -3.860806    1.363348   -0.000046
     20          1           0       -3.363069   -4.015502    0.000160
     21          1           0       -1.869707   -3.653069   -0.894225
     22          1           0       -1.869726   -3.652861    0.894501
     23          1           0       -1.998694    4.493153    0.000260
     24          1           0       -0.688096    3.689231    0.895170
     25          1           0       -0.688044    3.689515   -0.894822
     26          1           0        1.979496   -1.610667    0.000017
     27          1           0        2.651381    1.406661   -0.000008
     28          1           0        5.947098    0.410837   -0.000026
     29          1           0        5.299541   -1.617778    0.000229
 ---------------------------------------------------------------------

 SCF Done:  E(RM062X) =  -802.826813984     A.U. after    1 cycles

 The electronic state is 1-A.
 Alpha  occ. eigenvalues --  -19.86044 -19.85922 -19.78971 -19.78958 -19.77056
 Alpha  occ. eigenvalues --  -10.87199 -10.75426 -10.74008 -10.73343 -10.73027
 Alpha  occ. eigenvalues --  -10.70632 -10.69528 -10.69285 -10.69158 -10.68421
 Alpha  occ. eigenvalues --  -10.68256  -1.44444  -1.36129  -1.35011  -1.32174
 Alpha  occ. eigenvalues --   -1.30648  -1.11165  -1.07132  -1.00936  -0.99170
 Alpha  occ. eigenvalues --   -0.94292  -0.93387  -0.89823  -0.88291  -0.86273
 Alpha  occ. eigenvalues --   -0.81639  -0.79256  -0.77872  -0.75859  -0.73727
 Alpha  occ. eigenvalues --   -0.73169  -0.71442  -0.69979  -0.68743  -0.68066
 Alpha  occ. eigenvalues --   -0.66762  -0.66518  -0.64610  -0.63780  -0.62352
 Alpha  occ. eigenvalues --   -0.62202  -0.61577  -0.61474  -0.59317  -0.58157
 Alpha  occ. eigenvalues --   -0.57490  -0.55222  -0.54122  -0.54107  -0.52708
 Alpha  occ. eigenvalues --   -0.52064  -0.47842  -0.41490  -0.38656
 Alpha virt. eigenvalues --   -0.21313  -0.11588  -0.09461  -0.08138  -0.04994
 Alpha virt. eigenvalues --   -0.04295  -0.03660  -0.03015  -0.02211  -0.00405
 Alpha virt. eigenvalues --    0.00893   0.02833   0.03967   0.03969   0.04788

 Mulliken charges:
               1
     1  C    0.221823
     2  C    0.169255
     3  C   -0.219549
     4  C    0.103077
     5  C   -0.165611
     6  C    0.164672
     7  O   -0.253953
     8  O   -0.209812
     9  C   -0.175391
    10  O   -0.277683
    11  C   -0.177193
    12  C   -0.086150
    13  C   -0.253103
    14  C    0.381713
    15  O   -0.218651
    16  O   -0.223343
    17  H    0.150792
    18  H    0.154767
    19  H    0.288798
    20  H    0.152911
    21  H    0.107319
    22  H    0.107314
    23  H    0.152084
    24  H    0.114854
    25  H    0.114863
    26  H    0.156870
    27  H    0.175166
    28  H    0.271518
    29  H    0.272640
 Sum of Mulliken charges =   1.00000

 Dipole moment (field-independent basis, Debye):
    X=             10.6985    Y=             -0.1940    Z=              0.0009  Tot=             10.7003
 Quadrupole moment (field-independent basis, Debye-Ang):
   XX=             -6.4039   YY=            -57.0242   ZZ=            -93.8764
   XY=            -11.7019   XZ=              0.0018   YZ=             -0.0010

  Exact polarizability: 321.950  -5.612 164.530   0.001   0.000  76.645
 Approx polarizability: 393.002  -9.934 192.638   0.003   0.000 107.297

 ******    1 imaginary frequencies (negative Signs) ******

                      1                      2                      3
                      A                      A                      A
 Frequencies --    -56.4723                54.6263                71.5314
 Red. masses --      2.9669                 5.1856                 3.1947
 Frc consts  --      0.0056                 0.0091                 0.0096
 IR Inten    --      1.6205                 0.2958                 7.9126

                      4                      5                      6
                      A                      A                      A
 Frequencies --     76.2175                84.7971               114.6680
 Red. masses --      5.1404                 1.6936                 3.3959
 Frc consts  --      0.0176                 0.0072                 0.0263
 IR Inten    --      0.7682                 5.6116                 0.8135

                      7                      8                      9
                      A                      A                      A
 Frequencies --    146.0126               179.6245               195.5042
 Red. masses --      5.6945                 3.9262                 3.1623
 Frc consts  --      0.0715                 0.0746                 0.0712
 IR Inten    --      0.7872                 1.1849                 7.5294

                     10                     11                     12
                      A                      A                      A
 Frequencies --    204.7278               221.4164               256.1771
 Red. masses --      4.4923                 1.6597                 5.0660
 Frc consts  --      0.1109                 0.0479                 0.1959
 IR Inten    --      9.1203                 0.1491                 7.8017

                     13                     14                     15
                      A                      A                      A
 Frequencies --    281.0560               302.3090               316.5768
 Red. masses --      1.1642                 1.5013                 6.5952
 Frc consts  --      0.0542                 0.0808                 0.3894
 IR Inten    --      0.6815                 0.2522                 3.6454

                     16                     17                     18
                      A                      A                      A
 Frequencies --    341.9399               365.8933               384.7854
 Red. masses --      2.8177                 4.3926                 4.5751
 Frc consts  --      0.1941                 0.3465                 0.3991
 IR Inten    --      0.4756                 3.2314                 3.9014

                     19                     20                     21
                      A                      A                      A
 Frequencies --    423.4831               437.1303               502.0592
 Red. masses --      3.0252                 1.1812                 6.2865
 Frc consts  --      0.3197                 0.1330                 0.9336
 IR Inten    --      0.0566               247.1418                32.8020

                     22                     23                     24
                      A                      A                      A
 Frequencies --    532.0744               535.9144               560.4762
 Red. masses --      6.7545                 5.1698                 1.6313
 Frc consts  --      1.1266                 0.8748                 0.3019
 IR Inten    --      3.8241                35.9106                52.9793

                     25                     26                     27
                      A                      A                      A
 Frequencies --    601.1216               603.5007               615.2443
 Red. masses --      1.9333                 4.1234                 3.4580
 Frc consts  --      0.4116                 0.8848                 0.7712
 IR Inten    --     53.2945                32.9655                 0.8103

                     28                     29                     30
                      A                      A                      A
 Frequencies --    679.8698               721.7548               725.5020
 Red. masses --      4.0919                 4.9067                 5.9852
 Frc consts  --      1.1144                 1.5060                 1.8561
 IR Inten    --      1.0468                46.0329                 0.0093

                     31                     32                     33
                      A                      A                      A
 Frequencies --    754.2477               847.1626               862.4922
 Red. masses --      7.9545                 5.5795                 1.6064
 Frc consts  --      2.6662                 2.3593                 0.7041
 IR Inten    --      1.4812                 3.5325                 0.0168

                     34                     35                     36
                      A                      A                      A
 Frequencies --    876.1091               883.7543               963.8104
 Red. masses --      1.4275                 1.4734                 4.8725
 Frc consts  --      0.6456                 0.6780                 2.6667
 IR Inten    --     68.2912                 6.1074                 0.0666

                     37                     38                     39
                      A                      A                      A
 Frequencies --   1009.0804              1025.0829              1037.0030
 Red. masses --      4.7539                 1.3423                 3.4952
 Frc consts  --      2.8520                 0.8311                 2.2145
 IR Inten    --    254.4642                18.3830                25.4250

                     40                     41                     42
                      A                      A                      A
 Frequencies --   1100.9792              1146.3534              1173.4393
 Red. masses --      5.0835                 1.1112                 1.9267
 Frc consts  --      3.6306                 0.8604                 1.5631
 IR Inten    --      2.3771               142.4913              2162.3153

                     43                     44                     45
                      A                      A                      A
 Frequencies --   1180.2517              1184.9639              1194.6539
 Red. masses --      2.2869                 1.2771                 1.2696
 Frc consts  --      1.8769                 1.0565                 1.0676
 IR Inten    --    519.1421                 1.6808                 1.3097

                     46                     47                     48
                      A                      A                      A
 Frequencies --   1213.3373              1220.6721              1239.1179
 Red. masses --      1.4279                 1.3590                 1.6170
 Frc consts  --      1.2385                 1.1931                 1.4628
 IR Inten    --      0.0290                 7.3934                28.2867

                     49                     50                     51
                      A                      A                      A
 Frequencies --   1270.3664              1296.7859              1312.2966
 Red. masses --      2.0875                 1.6247                 1.7682
 Frc consts  --      1.9849                 1.6098                 1.7941
 IR Inten    --    316.4578                43.2803               281.8117

                     52                     53                     54
                      A                      A                      A
 Frequencies --   1337.2094              1366.1365              1411.3369
 Red. masses --      1.5665                 3.3754                 3.1460
 Frc consts  --      1.6504                 3.7117                 3.6921
 IR Inten    --     43.1029                42.6203               859.3937

                     55                     56                     57
                      A                      A                      A
 Frequencies --   1428.3132              1482.7278              1491.9730
 Red. masses --      3.9908                 1.2685                 1.4004
 Frc consts  --      4.7969                 1.6432                 1.8366
 IR Inten    --    711.6163                27.4623                35.1473

                     58                     59                     60
                      A                      A                      A
 Frequencies --   1507.5846              1508.4564              1509.1876
 Red. masses --      1.0426                 2.7454                 1.0672
 Frc consts  --      1.3962                 3.6807                 1.4321
 IR Inten    --     12.0737               966.2345                90.6187

                     61                     62                     63
                      A                      A                      A
 Frequencies --   1512.2159              1513.1471              1536.3121
 Red. masses --      1.0448                 1.1970                 4.9119
 Frc consts  --      1.4077                 1.6147                 6.8306
 IR Inten    --     11.8226                29.3756               202.2584

                     64                     65                     66
                      A                      A                      A
 Frequencies --   1559.3110              1634.8133              1636.9835
 Red. masses --      5.5924                 4.4712                 4.7295
 Frc consts  --      8.0114                 7.0406                 7.4672
 IR Inten    --    666.9451              1038.0257               147.8202

                     67                     68                     69
                      A                      A                      A
 Frequencies --   1655.8045              1686.0540              3049.5484
 Red. masses --      5.4639                 5.4944                 1.0350
 Frc consts  --      8.8261                 9.2026                 5.6709
 IR Inten    --    100.3341               485.8165                21.9022

                     70                     71                     72
                      A                      A                      A
 Frequencies --   3060.8922              3118.1560              3136.0062
 Red. masses --      1.0322                 1.1067                 1.1072
 Frc consts  --      5.6979                 6.3396                 6.4156
 IR Inten    --     15.6528                18.8082                14.1341

                     73                     74                     75
                      A                      A                      A
 Frequencies --   3181.7541              3191.1463              3200.9138
 Red. masses --      1.1041                 1.1007                 1.0901
 Frc consts  --      6.5857                 6.6043                 6.5808
 IR Inten    --      2.4338                 3.9539                 0.4489

                     76                     77                     78
                      A                      A                      A
 Frequencies --   3218.0449              3231.0399              3247.4340
 Red. masses --      1.0912                 1.0914                 1.0903
 Frc consts  --      6.6578                 6.7130                 6.7745
 IR Inten    --      1.2206                 1.7547                 2.5608

                     79                     80                     81
                      A                      A                      A
 Frequencies --   3770.1086              3822.3588              3842.3566
 Red. masses --      1.0648                 1.0676                 1.0664
 Frc consts  --      8.9169                 9.1899                 9.2765
 IR Inten    --    396.5253               235.3385               659.2468

 - Thermochemistry -
 -------------------
 Temperature   298.150 Kelvin.  Pressure   1.00000 Atm.
 Atom     1 has atomic number  6 and mass  12.00000

 Molecular mass:   225.07630 amu.
 Principal axes and moments of inertia in atomic units:
                           1         2         3
     Eigenvalues --  2504.797696485.570978967.32201
           X            0.99999   0.00327   0.00000
           Y           -0.00327   0.99999  -0.00001
           Z           -0.00000   0.00001   1.00000
 This molecule is an asymmetric top.
 Rotational symmetry number  1.
 Warning -- assumption of classical behavior for rotation
           may cause significant error
 Rotational temperatures (Kelvin)      0.03458     0.01335     0.00966
 Rotational constants (GHZ):           0.72051     0.27827     0.20126
    1 imaginary frequencies ignored.
 Zero-point vibrational energy     611143.9 (Joules/Mol)
                                  146.06690 (Kcal/Mol)
 Warning -- explicit consideration of  26 degrees of freedom as
           vibrations may cause significant error
 Vibrational temperatures:     78.59   102.92   109.66   122.00   164.98
          (Kelvin)            210.08   258.44   281.29   294.56   318.57
                              368.58   404.38   434.95   455.48   491.97
                              526.44   553.62   609.30   628.93   722.35
                              765.54   771.06   806.40   864.88   868.30
                              885.20   978.18  1038.44  1043.83  1085.19
                             1218.88  1240.93  1260.52  1271.52  1386.71
                             1451.84  1474.86  1492.01  1584.06  1649.34
                             1688.32  1698.12  1704.90  1718.84  1745.72
                             1756.27  1782.81  1827.77  1865.78  1888.10
                             1923.94  1965.56  2030.60  2055.02  2133.31
                             2146.61  2169.08  2170.33  2171.38  2175.74
                             2177.08  2210.41  2243.50  2352.13  2355.25
                             2382.33  2425.85  4387.61  4403.94  4486.33
                             4512.01  4577.83  4591.34  4605.40  4630.04
                             4648.74  4672.33  5424.34  5499.51  5528.29

 Zero-point correction=                           0.232772 (Hartree/Particle)
 Thermal correction to Energy=                    0.248071
 Thermal correction to Enthalpy=                  0.249016
 Thermal correction to Gibbs Free Energy=         0.190142
 Sum of electronic and zero-point Energies=           -802.594042
 Sum of electronic and thermal Energies=              -802.578743
 Sum of electronic and thermal Enthalpies=            -802.577798
 Sum of electronic and thermal Free Energies=         -802.636672

                     E (Thermal)             CV                S
                      KCal/Mol        Cal/Mol-Kelvin    Cal/Mol-Kelvin
 Total                  155.667             57.516            123.911
 Electronic               0.000              0.000              0.000
 Translational            0.889              2.981             42.136
 Rotational               0.889              2.981             33.343
 Vibrational            153.890             51.554             48.431
 Vibration     1          0.596              1.976              4.642
 Vibration     2          0.598              1.968              4.111
 Vibration     3          0.599              1.965              3.986
 Vibration     4          0.601              1.960              3.777
 Vibration     5          0.608              1.937              3.188
 Vibration     6          0.617              1.907              2.724
 Vibration     7          0.629              1.867              2.332
 Vibration     8          0.636              1.846              2.175
 Vibration     9          0.640              1.833              2.090
 Vibration    10          0.648              1.808              1.947
 Vibration    11          0.666              1.752              1.688
 Vibration    12          0.681              1.709              1.527
 Vibration    13          0.694              1.669              1.404
 Vibration    14          0.703              1.642              1.328
 Vibration    15          0.721              1.592              1.203
 Vibration    16          0.739              1.542              1.097
 Vibration    17          0.754              1.503              1.020
 Vibration    18          0.786              1.419              0.880
 Vibration    19          0.797              1.389              0.836
 Vibration    20          0.857              1.245              0.653
 Vibration    21          0.887              1.179              0.583
 Vibration    22          0.891              1.171              0.574
 Vibration    23          0.916              1.117              0.523
 Vibration    24          0.959              1.029              0.448
 Vibration    25          0.962              1.024              0.444
 Vibration    26          0.975              1.000              0.424

 Optimization completed.
    -- Stationary point found.
 Normal termination of Gaussian 09 at Thu Dec 19 18:01:49 2024.
