 Gaussian 09, Revision E.01,
 Gaussian 09:  ES64L-G09RevE.01 30-Nov-2015

 ------------------------
 # opt freq m062x/cc-pvtz
 ------------------------

 ----------
 [No Title]
 ----------
 Symbolic Z-matrix:
 Charge =  0 Multiplicity = 1

 SCF Done:  E(RM062X) =  -802.483094234     A.U. after   15 cycles
 SCF Done:  E(RM062X) =  -802.483890334     A.U. after   11 cycles
 SCF Done:  E(RM062X) =  -802.483907244     A.U. after    8 cycles
 SCF Done:  E(RM062X) =  -802.483908479     A.U. after    7 cycles
 SCF Done:  E(RM062X) =  -802.483908087     A.U. after    8 cycles
 SCF Done:  E(RM062X) =  -802.483908795     A.U. after    7 cycles
 Optimization completed.
    -- Stationary point found.
 Normal termination of Gaussian 09 at Thu Dec 19 16:48:58 2024.

 -------------------------------------------------------------------
 #N Geom=AllCheck Guess=TCheck SCRF=Check GenChk RM062X/CC-pVTZ Freq
 -------------------------------------------------------------------

 Structure from the checkpoint file:  "ccpvTZSA.chk"
 ----------
 [No Title]
 ----------
 Charge =  0 Multiplicity = 1

                         Standard orientation:
 ---------------------------------------------------------------------
 Center     Atomic      Atomic             Coordinates (Angstroms)
 Number     Number       Type             X           Y           Z
 ---------------------------------------------------------------------
      1          6           0        2.377801    0.218645    0.000057
      2          6           0        1.913240   -1.095542    0.000020
      3          6           0        0.543845   -1.333346   -0.000057
      4          6           0       -0.368084   -0.278254   -0.000083
      5          6           0        0.099330    1.037459   -0.000049
      6          6           0        1.460840    1.273156    0.000019
      7          8           0        3.705458    0.456455    0.000123
      8          8           0        2.867963   -2.052720    0.000068
      9          6           0        2.439714   -3.396299   -0.000055
     10          8           0        2.050625    2.502964    0.000057
     11          6           0        1.202899    3.632299   -0.000030
     12          6           0       -1.790344   -0.598103   -0.000134
     13          6           0       -2.815279    0.256523    0.000016
     14          6           0       -4.192305   -0.262149   -0.000083
     15          8           0       -5.098840    0.738755    0.000250
     16          8           0       -4.519581   -1.420404   -0.000181
     17          1           0        0.167364   -2.345502   -0.000085
     18          1           0       -0.596985    1.861285   -0.000090
     19          1           0        3.829598    1.413075    0.000146
     20          1           0        3.341544   -4.000643   -0.000053
     21          1           0        1.849944   -3.624111    0.891145
     22          1           0        1.850036   -3.623974   -0.891351
     23          1           0        0.572898    3.645999   -0.891721
     24          1           0        0.572805    3.646061    0.891594
     25          1           0        1.851320    4.502965   -0.000030
     26          1           0       -2.043536   -1.654146   -0.000307
     27          1           0       -2.699765    1.330675    0.000215
     28          1           0       -5.970168    0.321585    0.000268
 ---------------------------------------------------------------------

 SCF Done:  E(RM062X) =  -802.483908795     A.U. after    1 cycles

 The electronic state is 1-A.
 Alpha  occ. eigenvalues --  -19.67698 -19.66506 -19.66015 -19.65624 -19.60636
 Alpha  occ. eigenvalues --  -10.67111 -10.61495 -10.61059 -10.60962 -10.60688
 Alpha  occ. eigenvalues --  -10.59393 -10.56618 -10.56110 -10.55100 -10.54956
 Alpha  occ. eigenvalues --  -10.54857  -1.23235  -1.22398  -1.20516  -1.18194
 Alpha  occ. eigenvalues --   -1.13493  -0.97796  -0.91359  -0.87049  -0.85792
 Alpha  occ. eigenvalues --   -0.81752  -0.79640  -0.76050  -0.70385  -0.69553
 Alpha  occ. eigenvalues --   -0.65580  -0.63170  -0.62364  -0.59062  -0.58560
 Alpha  occ. eigenvalues --   -0.57687  -0.57514  -0.56209  -0.55852  -0.54294
 Alpha  occ. eigenvalues --   -0.53257  -0.52856  -0.50472  -0.50219  -0.49154
 Alpha  occ. eigenvalues --   -0.47998  -0.46581  -0.44918  -0.44260  -0.42896
 Alpha  occ. eigenvalues --   -0.42895  -0.42686  -0.40843  -0.40814  -0.39474
 Alpha  occ. eigenvalues --   -0.35579  -0.34122  -0.29164  -0.26028
 Alpha virt. eigenvalues --   -0.03529   0.03604   0.05886   0.06135   0.06896
 Alpha virt. eigenvalues --    0.07305   0.07971   0.09940   0.11272   0.12582
 Alpha virt. eigenvalues --    0.13479   0.13589   0.13618   0.14329   0.14884

 Mulliken charges:
               1
     1  C    0.153568
     2  C    0.166013
     3  C   -0.264276
     4  C    0.090761
     5  C   -0.207736
     6  C    0.163028
     7  O   -0.318435
     8  O   -0.224026
     9  C   -0.173717
    10  O   -0.288095
    11  C   -0.176741
    12  C   -0.106159
    13  C   -0.254963
    14  C    0.340991
    15  O   -0.325042
    16  O   -0.348588
    17  H    0.137260
    18  H    0.141084
    19  H    0.269931
    20  H    0.129939
    21  H    0.099931
    22  H    0.099929
    23  H    0.107383
    24  H    0.107384
    25  H    0.129045
    26  H    0.147235
    27  H    0.138325
    28  H    0.265973
 Sum of Mulliken charges =  -0.00000

 Dipole moment (field-independent basis, Debye):
    X=              0.7278    Y=              2.4550    Z=             -0.0001  Tot=              2.5606
 Quadrupole moment (field-independent basis, Debye-Ang):
   XX=            -99.8164   YY=            -74.8326   ZZ=            -95.7276
   XY=             -4.9201   XZ=             -0.0017   YZ=             -0.0001

  Exact polarizability: 227.673  -4.511 169.937   0.001   0.003  78.524
 Approx polarizability: 258.704  -5.254 204.850   0.002   0.005 110.154

                      1                      2                      3
                      A                      A                      A
 Frequencies --     27.0391                66.8483                71.2905
 Red. masses --      7.1865                 4.7002                 5.7478
 Frc consts  --      0.0031                 0.0124                 0.0172
 IR Inten    --      0.6399                 4.3389                 0.2942

                      4                      5                      6
                      A                      A                      A
 Frequencies --     71.6882               103.6109               137.2577
 Red. masses --      4.0000                 3.5276                 3.4708
 Frc consts  --      0.0121                 0.0223                 0.0385
 IR Inten    --      2.7483                 0.0019                 0.0189

                      7                      8                      9
                      A                      A                      A
 Frequencies --    163.1676               183.0235               204.6214
 Red. masses --      4.9437                 4.5021                 4.6168
 Frc consts  --      0.0775                 0.0889                 0.1139
 IR Inten    --      3.3012                 3.2792                 1.1847

                     10                     11                     12
                      A                      A                      A
 Frequencies --    233.5328               257.1278               260.4643
 Red. masses --      2.0339                 5.3398                 2.4721
 Frc consts  --      0.0654                 0.2080                 0.0988
 IR Inten    --      0.0929                 0.9489                 0.0344

                     13                     14                     15
                      A                      A                      A
 Frequencies --    304.2803               308.2292               326.0925
 Red. masses --      6.6189                 1.2382                 1.4101
 Frc consts  --      0.3611                 0.0693                 0.0883
 IR Inten    --      5.9402                 0.0317                 0.0085

                     16                     17                     18
                      A                      A                      A
 Frequencies --    371.8426               384.9443               399.0278
 Red. masses --      4.2436                 4.4416                 3.6323
 Frc consts  --      0.3457                 0.3878                 0.3408
 IR Inten    --      0.9342                 0.8259                 3.9006

                     19                     20                     21
                      A                      A                      A
 Frequencies --    469.5478               503.0766               515.5288
 Red. masses --      1.1680                 5.7673                 5.4331
 Frc consts  --      0.1517                 0.8600                 0.8508
 IR Inten    --     89.5277                 8.5329                18.3140

                     22                     23                     24
                      A                      A                      A
 Frequencies --    543.4121               587.1079               602.2116
 Red. masses --      6.8405                 1.7174                 3.6292
 Frc consts  --      1.1901                 0.3488                 0.7755
 IR Inten    --      1.8097                28.2869                 6.1571

                     25                     26                     27
                      A                      A                      A
 Frequencies --    616.3080               638.7732               675.0596
 Red. masses --      5.3936                 1.9958                 4.0956
 Frc consts  --      1.2070                 0.4798                 1.0996
 IR Inten    --     83.6160                69.9713                16.0002

                     28                     29                     30
                      A                      A                      A
 Frequencies --    721.8371               743.4953               769.7373
 Red. masses --      4.7886                 6.4849                 3.4329
 Frc consts  --      1.4701                 2.1121                 1.1984
 IR Inten    --      1.3166                 3.3110                12.0755

                     31                     32                     33
                      A                      A                      A
 Frequencies --    836.8912               858.4812               872.9250
 Red. masses --      5.4680                 1.5445                 1.5351
 Frc consts  --      2.2564                 0.6707                 0.6892
 IR Inten    --     13.3817                25.0309                31.9965

                     34                     35                     36
                      A                      A                      A
 Frequencies --    910.6469               961.5734               986.4650
 Red. masses --      1.9815                 4.9288                 3.5926
 Frc consts  --      0.9682                 2.6851                 2.0598
 IR Inten    --     11.4738                22.0654                20.4393

                     37                     38                     39
                      A                      A                      A
 Frequencies --   1029.7630              1043.1631              1118.4333
 Red. masses --      3.9749                 1.1889                 4.6961
 Frc consts  --      2.4834                 0.7623                 3.4611
 IR Inten    --      2.5386                27.5691                 1.7452

                     40                     41                     42
                      A                      A                      A
 Frequencies --   1170.3901              1186.3068              1187.2476
 Red. masses --      2.2862                 2.7968                 1.2789
 Frc consts  --      1.8452                 2.3190                 1.0621
 IR Inten    --    571.2604               230.5160                 1.5899

                     43                     44                     45
                      A                      A                      A
 Frequencies --   1198.0125              1201.6101              1221.8836
 Red. masses --      1.2708                 1.7892                 1.3738
 Frc consts  --      1.0746                 1.5221                 1.2084
 IR Inten    --      1.2648                62.4974                 7.0140

                     46                     47                     48
                      A                      A                      A
 Frequencies --   1231.3793              1264.1268              1273.9303
 Red. masses --      1.4704                 2.1668                 1.5326
 Frc consts  --      1.3136                 2.0401                 1.4655
 IR Inten    --     21.2433               384.0504                32.7860

                     49                     50                     51
                      A                      A                      A
 Frequencies --   1302.3967              1313.1757              1339.7925
 Red. masses --      1.7235                 2.9516                 1.4511
 Frc consts  --      1.7225                 2.9989                 1.5347
 IR Inten    --     98.5191                18.3436                27.0184

                     52                     53                     54
                      A                      A                      A
 Frequencies --   1384.3485              1407.3087              1433.0818
 Red. masses --      2.9814                 3.1922                 3.0113
 Frc consts  --      3.3663                 3.7249                 3.6437
 IR Inten    --    321.5191                84.6754                84.6488

                     55                     56                     57
                      A                      A                      A
 Frequencies --   1476.5571              1497.0479              1509.8824
 Red. masses --      1.4804                 1.3416                 1.0434
 Frc consts  --      1.9017                 1.7716                 1.4015
 IR Inten    --     88.8327                13.6339                 6.3507

                     58                     59                     60
                      A                      A                      A
 Frequencies --   1510.2184              1513.6184              1516.1417
 Red. masses --      1.0450                 1.7423                 1.2988
 Frc consts  --      1.4042                 2.3519                 1.7590
 IR Inten    --     11.1266                74.3749                92.7834

                     61                     62                     63
                      A                      A                      A
 Frequencies --   1519.5485              1582.3372              1667.7385
 Red. masses --      1.0660                 5.2378                 6.7308
 Frc consts  --      1.4503                 7.7267                11.0299
 IR Inten    --     45.9163               292.5521                63.2230

                     64                     65                     66
                      A                      A                      A
 Frequencies --   1684.8446              1720.1760              1844.2458
 Red. masses --      6.6930                 6.5014                 9.4705
 Frc consts  --     11.1941                11.3345                18.9785
 IR Inten    --    203.3511               297.0456               336.4001

                     67                     68                     69
                      A                      A                      A
 Frequencies --   3042.0401              3054.0304              3103.6763
 Red. masses --      1.0352                 1.0334                 1.1057
 Frc consts  --      5.6445                 5.6786                 6.2754
 IR Inten    --     39.2709                30.9556                27.4247

                     70                     71                     72
                      A                      A                      A
 Frequencies --   3120.4399              3172.8174              3174.2707
 Red. masses --      1.1063                 1.1020                 1.0998
 Frc consts  --      6.3470                 6.5360                 6.5288
 IR Inten    --     21.8835                13.6885                16.1466

                     73                     74                     75
                      A                      A                      A
 Frequencies --   3181.4607              3215.4125              3221.0298
 Red. masses --      1.0896                 1.0912                 1.0903
 Frc consts  --      6.4978                 6.6469                 6.6649
 IR Inten    --      0.2499                 3.8623                 1.1330

                     76                     77                     78
                      A                      A                      A
 Frequencies --   3230.8986              3812.9581              3835.8097
 Red. masses --      1.0895                 1.0642                 1.0648
 Frc consts  --      6.7005                 9.1160                 9.2308
 IR Inten    --      2.4020               139.4267               162.0747

 - Thermochemistry -
 -------------------
 Temperature   298.150 Kelvin.  Pressure   1.00000 Atm.
 Atom     1 has atomic number  6 and mass  12.00000

 Molecular mass:   224.06847 amu.
 Principal axes and moments of inertia in atomic units:
                           1         2         3
     Eigenvalues --  2473.951656517.764518968.83543
           X            0.99994  -0.01091  -0.00001
           Y            0.01091   0.99994  -0.00002
           Z            0.00001   0.00002   1.00000
 This molecule is an asymmetric top.
 Rotational symmetry number  1.
 Warning -- assumption of classical behavior for rotation
           may cause significant error
 Rotational temperatures (Kelvin)      0.03501     0.01329     0.00966
 Rotational constants (GHZ):           0.72950     0.27690     0.20122
 Zero-point vibrational energy     581389.4 (Joules/Mol)
                                  138.95540 (Kcal/Mol)
 Warning -- explicit consideration of  25 degrees of freedom as
           vibrations may cause significant error
 Vibrational temperatures:     38.90    96.18   102.57   103.14   149.07
          (Kelvin)            197.48   234.76   263.33   294.40   336.00
                              369.95   374.75   437.79   443.47   469.17
                              535.00   553.85   574.11   675.57   723.81
                              741.73   781.85   844.72   866.45   886.73
                              919.05   971.26  1038.56  1069.72  1107.48
                             1204.10  1235.16  1255.94  1310.22  1383.49
                             1419.30  1481.60  1500.88  1609.17  1683.93
                             1706.83  1708.18  1723.67  1728.85  1758.02
                             1771.68  1818.79  1832.90  1873.86  1889.36
                             1927.66  1991.77  2024.80  2061.88  2124.43
                             2153.92  2172.38  2172.86  2177.76  2181.39
                             2186.29  2276.63  2399.50  2424.11  2474.95
                             2653.46  4376.81  4394.06  4465.49  4489.61
                             4564.97  4567.06  4577.41  4626.26  4634.34
                             4648.54  5485.99  5518.87

 Zero-point correction=                           0.221440 (Hartree/Particle)
 Thermal correction to Energy=                    0.236895
 Thermal correction to Enthalpy=                  0.237839
 Thermal correction to Gibbs Free Energy=         0.177763
 Sum of electronic and zero-point Energies=           -802.262469
 Sum of electronic and thermal Energies=              -802.247014
 Sum of electronic and thermal Enthalpies=            -802.246070
 Sum of electronic and thermal Free Energies=         -802.306146

                     E (Thermal)             CV                S
                      KCal/Mol        Cal/Mol-Kelvin    Cal/Mol-Kelvin
 Total                  148.654             57.247            126.440
 Electronic               0.000              0.000              0.000
 Translational            0.889              2.981             42.123
 Rotational               0.889              2.981             33.336
 Vibrational            146.876             51.285             50.981
 Vibration     1          0.593              1.984              6.036
 Vibration     2          0.598              1.970              4.244
 Vibration     3          0.598              1.968              4.117
 Vibration     4          0.598              1.968              4.106
 Vibration     5          0.605              1.946              3.385
 Vibration     6          0.614              1.916              2.842
 Vibration     7          0.623              1.888              2.513
 Vibration     8          0.631              1.863              2.297
 Vibration     9          0.640              1.833              2.091
 Vibration    10          0.654              1.790              1.852
 Vibration    11          0.667              1.751              1.681
 Vibration    12          0.669              1.745              1.659
 Vibration    13          0.695              1.666              1.393
 Vibration    14          0.698              1.658              1.372
 Vibration    15          0.710              1.623              1.279
 Vibration    16          0.744              1.530              1.072
 Vibration    17          0.754              1.502              1.020
 Vibration    18          0.765              1.472              0.966
 Vibration    19          0.827              1.318              0.739
 Vibration    20          0.858              1.243              0.650
 Vibration    21          0.871              1.216              0.620
 Vibration    22          0.899              1.154              0.558
 Vibration    23          0.944              1.059              0.472
 Vibration    24          0.961              1.027              0.446
 Vibration    25          0.976              0.997              0.422

 Optimization completed.
    -- Stationary point found.
 Normal termination of Gaussian 09 at Thu Dec 19 17:07:01 2024.
