 Gaussian 09, Revision E.01,
 Gaussian 09:  ES64L-G09RevE.01 30-Nov-2015

 ----------------------------
 # opt freq m062x/aug-cc-pvdz
 ----------------------------

 ----------
 [No Title]
 ----------
 Symbolic Z-matrix:
 Charge =  0 Multiplicity = 1

 SCF Done:  E(RM062X) =  -610.446157220     A.U. after   15 cycles
 SCF Done:  E(RM062X) =  -610.446212405     A.U. after   12 cycles
 SCF Done:  E(RM062X) =  -610.446201544     A.U. after   12 cycles
 SCF Done:  E(RM062X) =  -610.446247986     A.U. after   12 cycles
 SCF Done:  E(RM062X) =  -610.446251331     A.U. after   10 cycles
 Optimization completed.
    -- Stationary point found.
 Normal termination of Gaussian 09 at Sun Dec 15 20:59:08 2024.

 ----------------------------------------------------------------------
 #N Geom=AllCheck Guess=TCheck SCRF=Check GenChk RM062X/Aug-CC-pVDZ Fre
 q
 ----------------------------------------------------------------------

 Structure from the checkpoint file:  "pvdzdzTHAP.chk"
 ----------
 [No Title]
 ----------
 Charge =  0 Multiplicity = 1

                         Standard orientation:
 ---------------------------------------------------------------------
 Center     Atomic      Atomic             Coordinates (Angstroms)
 Number     Number       Type             X           Y           Z
 ---------------------------------------------------------------------
      1          6           0       -1.521053    1.251585    0.000043
      2          6           0       -2.255999    0.061084    0.000018
      3          6           0       -1.627120   -1.175500   -0.000031
      4          6           0       -0.230593   -1.229249   -0.000055
      5          6           0        0.563659   -0.042083   -0.000009
      6          6           0       -0.136157    1.190826    0.000032
      7          8           0        0.585437    2.344342    0.000073
      8          6           0        2.029274   -0.171952    0.000017
      9          6           0        2.946731    1.022593   -0.000017
     10          8           0        2.548763   -1.295969    0.000064
     11          8           0        0.327675   -2.436277   -0.000156
     12          8           0       -3.605367    0.187744    0.000034
     13          1           0       -2.048621    2.203748    0.000072
     14          1           0       -2.186258   -2.109248   -0.000065
     15          1           0       -0.024326    3.090248    0.000186
     16          1           0        2.759448    1.648247    0.879477
     17          1           0        3.973423    0.650103    0.000018
     18          1           0        2.759483    1.648179   -0.879567
     19          1           0        1.313838   -2.287636   -0.000239
     20          1           0       -4.011509   -0.686185    0.000010
 ---------------------------------------------------------------------

 SCF Done:  E(RM062X) =  -610.446251330     A.U. after    2 cycles

 The electronic state is 1-A.
 Alpha  occ. eigenvalues --  -19.69765 -19.69455 -19.66036 -19.64526 -10.65467
 Alpha  occ. eigenvalues --  -10.64497 -10.64061 -10.63735 -10.56425 -10.55596
 Alpha  occ. eigenvalues --  -10.55121 -10.54836  -1.21622  -1.21127  -1.20062
 Alpha  occ. eigenvalues --   -1.16617  -0.96617  -0.87986  -0.85193  -0.82997
 Alpha  occ. eigenvalues --   -0.74640  -0.72699  -0.68147  -0.66236  -0.60354
 Alpha  occ. eigenvalues --   -0.59565  -0.58345  -0.56070  -0.54175  -0.52066
 Alpha  occ. eigenvalues --   -0.51338  -0.51047  -0.49344  -0.49295  -0.48652
 Alpha  occ. eigenvalues --   -0.48073  -0.45323  -0.43826  -0.43476  -0.43120
 Alpha  occ. eigenvalues --   -0.37354  -0.33642  -0.29515  -0.28333
 Alpha virt. eigenvalues --   -0.02221  -0.01455  -0.00637   0.00739   0.01934
 Alpha virt. eigenvalues --    0.02142   0.02383   0.02628   0.03433   0.04443
 Alpha virt. eigenvalues --    0.05158   0.05290   0.06584   0.07181   0.07740

 Mulliken charges:
               1
     1  C    1.827406
     2  C   -0.430164
     3  C    1.442397
     4  C   -0.939499
     5  C    2.516181
     6  C   -0.463366
     7  O   -0.633263
     8  C   -0.673717
     9  C    1.033791
    10  O   -0.710732
    11  O   -0.566781
    12  O   -0.560472
    13  H   -1.091261
    14  H   -1.032892
    15  H    0.257692
    16  H    0.009797
    17  H   -0.422998
    18  H    0.009741
    19  H    0.233661
    20  H    0.194478
 Sum of Mulliken charges =  -0.00000

 Dipole moment (field-independent basis, Debye):
    X=             -2.0812    Y=              2.9648    Z=             -0.0000  Tot=              3.6223
 Quadrupole moment (field-independent basis, Debye-Ang):
   XX=            -66.0501   YY=            -65.4072   ZZ=            -71.8849
   XY=              8.3615   XZ=             -0.0006   YZ=              0.0012

  Exact polarizability: 154.169  -0.927 123.602   0.005   0.001  64.639
 Approx polarizability: 180.437  -8.086 165.220  -0.000   0.002  89.218

                      1                      2                      3
                      A                      A                      A
 Frequencies --     52.5851               105.1156               205.8013
 Red. masses --      3.6630                10.5329                 4.0429
 Frc consts  --      0.0060                 0.0686                 0.1009
 IR Inten    --      0.8779                 0.1713                 2.3602

                      4                      5                      6
                      A                      A                      A
 Frequencies --    230.2777               249.5301               268.0989
 Red. masses --      4.4304                 1.2141                 4.6265
 Frc consts  --      0.1384                 0.0445                 0.1959
 IR Inten    --      0.4198                 0.0350                12.2602

                      7                      8                      9
                      A                      A                      A
 Frequencies --    295.6704               338.6179               360.3907
 Red. masses --      4.0669                 5.6333                 6.3073
 Frc consts  --      0.2095                 0.3806                 0.4827
 IR Inten    --      4.6980                 5.7552                 8.0922

                     10                     11                     12
                      A                      A                      A
 Frequencies --    375.8880               396.6820               435.5149
 Red. masses --      4.3086                 1.1681                 6.2276
 Frc consts  --      0.3587                 0.1083                 0.6959
 IR Inten    --      2.7173                68.6258                 4.5328

                     13                     14                     15
                      A                      A                      A
 Frequencies --    482.7888               531.6883               577.6491
 Red. masses --      1.0974                 6.8385                 5.5304
 Frc consts  --      0.1507                 1.1390                 1.0873
 IR Inten    --    109.0869                 8.7808                25.3880

                     16                     17                     18
                      A                      A                      A
 Frequencies --    585.1369               619.1919               632.6786
 Red. masses --      2.6753                 8.2197                 2.6076
 Frc consts  --      0.5397                 1.8568                 0.6150
 IR Inten    --      0.3278                 5.5937                 0.0537

                     19                     20                     21
                      A                      A                      A
 Frequencies --    645.7902               656.3731               720.7371
 Red. masses --      3.9009                 2.2758                 3.8854
 Frc consts  --      0.9585                 0.5777                 1.1892
 IR Inten    --     16.5822                25.9228                14.5107

                     22                     23                     24
                      A                      A                      A
 Frequencies --    769.5917               818.7730               869.9333
 Red. masses --      2.6726                 1.9382                 2.9911
 Frc consts  --      0.9326                 0.7656                 1.3337
 IR Inten    --     16.9448                 2.3831                48.7362

                     25                     26                     27
                      A                      A                      A
 Frequencies --    948.8793               979.9265              1036.2765
 Red. masses --      1.0652                 2.0046                 1.9718
 Frc consts  --      0.5651                 1.1341                 1.2476
 IR Inten    --     71.2487                33.1222                 6.0713

                     28                     29                     30
                      A                      A                      A
 Frequencies --   1040.3792              1094.3233              1110.3381
 Red. masses --      2.9833                 2.4918                 4.0310
 Frc consts  --      1.9025                 1.7582                 2.9280
 IR Inten    --      9.9567                28.7132                67.1380

                     31                     32                     33
                      A                      A                      A
 Frequencies --   1178.1271              1203.9529              1250.1052
 Red. masses --      1.4392                 1.5268                 1.7227
 Frc consts  --      1.1769                 1.3039                 1.5862
 IR Inten    --    117.2151                36.2533               200.8575

                     34                     35                     36
                      A                      A                      A
 Frequencies --   1289.6163              1321.4048              1355.3694
 Red. masses --      1.6118                 2.3062                 2.2720
 Frc consts  --      1.5793                 2.3726                 2.4591
 IR Inten    --    211.7264               119.8593                55.3788

                     37                     38                     39
                      A                      A                      A
 Frequencies --   1392.2331              1428.2493              1431.5221
 Red. masses --      2.4308                 3.7369                 1.1012
 Frc consts  --      2.7760                 4.4913                 1.3296
 IR Inten    --    199.8781                 5.7352                21.6163

                     40                     41                     42
                      A                      A                      A
 Frequencies --   1446.2584              1484.5508              1519.7884
 Red. masses --      1.0467                 3.1825                 4.3592
 Frc consts  --      1.2900                 4.1325                 5.9323
 IR Inten    --     11.0471                12.9525               210.9103

                     43                     44                     45
                      A                      A                      A
 Frequencies --   1578.3205              1684.7523              1707.8317
 Red. masses --      2.7896                 4.6172                 8.9428
 Frc consts  --      4.0943                 7.7215                15.3679
 IR Inten    --    104.7741               105.9998               372.2927

                     46                     47                     48
                      A                      A                      A
 Frequencies --   1725.8742              3075.9345              3146.6871
 Red. masses --      5.3892                 1.0347                 1.0736
 Frc consts  --      9.4579                 5.7679                 6.2633
 IR Inten    --    700.4949                 1.0903               518.2353

                     49                     50                     51
                      A                      A                      A
 Frequencies --   3155.6110              3188.8668              3195.4341
 Red. masses --      1.0991                 1.1067                 1.0938
 Frc consts  --      6.4487                 6.6308                 6.5804
 IR Inten    --      1.9464                19.0644                 0.9661

                     52                     53                     54
                      A                      A                      A
 Frequencies --   3209.3161              3862.8633              3869.8990
 Red. masses --      1.0936                 1.0662                 1.0663
 Frc consts  --      6.6364                 9.3737                 9.4085
 IR Inten    --      2.5040               109.1196                87.2710

 - Thermochemistry -
 -------------------
 Temperature   298.150 Kelvin.  Pressure   1.00000 Atm.
 Atom     1 has atomic number  6 and mass  12.00000

 Molecular mass:   168.04226 amu.
 Principal axes and moments of inertia in atomic units:
                           1         2         3
     Eigenvalues --  1162.344412350.087293501.29552
           X            0.99941   0.03430   0.00000
           Y           -0.03430   0.99941  -0.00003
           Z           -0.00000   0.00003   1.00000
 This molecule is an asymmetric top.
 Rotational symmetry number  1.
 Warning -- assumption of classical behavior for rotation
           may cause significant error
 Rotational temperatures (Kelvin)      0.07452     0.03686     0.02474
 Rotational constants (GHZ):           1.55267     0.76795     0.51545
 Zero-point vibrational energy     401569.6 (Joules/Mol)
                                   95.97744 (Kcal/Mol)
 Warning -- explicit consideration of  17 degrees of freedom as
           vibrations may cause significant error
 Vibrational temperatures:     75.66   151.24   296.10   331.32   359.02
          (Kelvin)            385.73   425.40   487.20   518.52   540.82
                              570.74   626.61   694.62   764.98   831.11
                              841.88   890.88   910.28   929.15   944.37
                             1036.98  1107.27  1178.03  1251.64  1365.22
                             1409.89  1490.97  1496.87  1574.49  1597.53
                             1695.06  1732.22  1798.62  1855.47  1901.20
                             1950.07  2003.11  2054.93  2059.64  2080.84
                             2135.93  2186.63  2270.85  2423.98  2457.19
                             2483.14  4425.58  4527.38  4540.21  4588.06
                             4597.51  4617.48  5557.79  5567.91

 Zero-point correction=                           0.152950 (Hartree/Particle)
 Thermal correction to Energy=                    0.163414
 Thermal correction to Enthalpy=                  0.164358
 Thermal correction to Gibbs Free Energy=         0.117126
 Sum of electronic and zero-point Energies=           -610.293302
 Sum of electronic and thermal Energies=              -610.282838
 Sum of electronic and thermal Enthalpies=            -610.281893
 Sum of electronic and thermal Free Energies=         -610.329125

                     E (Thermal)             CV                S
                      KCal/Mol        Cal/Mol-Kelvin    Cal/Mol-Kelvin
 Total                  102.544             41.084             99.407
 Electronic               0.000              0.000              0.000
 Translational            0.889              2.981             41.265
 Rotational               0.889              2.981             30.637
 Vibrational            100.766             35.122             27.504
 Vibration     1          0.596              1.977              4.718
 Vibration     2          0.605              1.945              3.357
 Vibration     3          0.640              1.832              2.081
 Vibration     4          0.652              1.795              1.877
 Vibration     5          0.662              1.764              1.734
 Vibration     6          0.673              1.732              1.608
 Vibration     7          0.690              1.682              1.441
 Vibration     8          0.719              1.598              1.219
 Vibration     9          0.735              1.554              1.120
 Vibration    10          0.747              1.521              1.056
 Vibration    11          0.763              1.477              0.975
 Vibration    12          0.796              1.393              0.841
 Vibration    13          0.839              1.288              0.703
 Vibration    14          0.887              1.180              0.583
 Vibration    15          0.934              1.080              0.490
 Vibration    16          0.942              1.064              0.476
 Vibration    17          0.979              0.991              0.418

 Normal termination of Gaussian 09 at Sun Dec 15 21:04:35 2024.
