 Gaussian 09, Revision E.01,
 Gaussian 09:  ES64L-G09RevE.01 30-Nov-2015

 ----------------------------
 # opt freq m062x/aug-cc-pvdz
 ----------------------------

 ----------
 [No Title]
 ----------
 Symbolic Z-matrix:
 Charge =  1 Multiplicity = 1

 SCF Done:  E(RM062X) =  -610.796417845     A.U. after   15 cycles
 SCF Done:  E(RM062X) =  -610.796533974     A.U. after   12 cycles
 SCF Done:  E(RM062X) =  -610.796517838     A.U. after   12 cycles
 SCF Done:  E(RM062X) =  -610.796555904     A.U. after    7 cycles
 SCF Done:  E(RM062X) =  -610.796564046     A.U. after   11 cycles
 SCF Done:  E(RM062X) =  -610.796565753     A.U. after    9 cycles
 Optimization completed.
    -- Stationary point found.
 Normal termination of Gaussian 09 at Sun Dec 15 21:22:31 2024.

 ----------------------------------------------------------------------
 #N Geom=AllCheck Guess=TCheck SCRF=Check GenChk RM062X/Aug-CC-pVDZ Fre
 q
 ----------------------------------------------------------------------

 Structure from the checkpoint file:  "pvdzTHAPyang.chk"
 ----------
 [No Title]
 ----------
 Charge =  1 Multiplicity = 1

                         Standard orientation:
 ---------------------------------------------------------------------
 Center     Atomic      Atomic             Coordinates (Angstroms)
 Number     Number       Type             X           Y           Z
 ---------------------------------------------------------------------
      1          6           0        1.540054   -1.270506   -0.000256
      2          6           0        2.275882   -0.082297   -0.000113
      3          6           0        1.636518    1.171404    0.000028
      4          6           0        0.262394    1.212370    0.000064
      5          6           0       -0.554458    0.029198   -0.000021
      6          6           0        0.159065   -1.221394   -0.000226
      7          8           0       -0.565080   -2.346145   -0.000400
      8          6           0       -1.976966    0.087721    0.000184
      9          6           0       -2.901054   -1.077842    0.000324
     10          8           0       -2.621511    1.213355    0.000293
     11          8           0       -0.391688    2.400098    0.000114
     12          8           0        3.598768   -0.206905   -0.000164
     13          1           0        2.073960   -2.218829   -0.000412
     14          1           0        2.219388    2.091794    0.000031
     15          1           0        0.010777   -3.122720   -0.000539
     16          1           0       -2.715249   -1.705027   -0.878835
     17          1           0       -2.714847   -1.705152    0.879305
     18          1           0       -3.926411   -0.704499    0.000582
     19          1           0       -2.021732    1.987612    0.000232
     20          1           0        0.213642    3.153020    0.001053
     21          1           0        4.047948    0.648658   -0.000062
 ---------------------------------------------------------------------

 SCF Done:  E(RM062X) =  -610.796565753     A.U. after    2 cycles

 The electronic state is 1-A.
 Alpha  occ. eigenvalues --  -19.87256 -19.86969 -19.84918 -19.84602 -10.84483
 Alpha  occ. eigenvalues --  -10.81796 -10.81070 -10.80816 -10.74124 -10.72115
 Alpha  occ. eigenvalues --  -10.70961 -10.69921  -1.40989  -1.38288  -1.37359
 Alpha  occ. eigenvalues --   -1.36915  -1.13531  -1.06224  -1.01974  -1.00507
 Alpha  occ. eigenvalues --   -0.92000  -0.90227  -0.88011  -0.84100  -0.81808
 Alpha  occ. eigenvalues --   -0.79614  -0.75435  -0.73121  -0.71561  -0.69052
 Alpha  occ. eigenvalues --   -0.68994  -0.68421  -0.67844  -0.66555  -0.64781
 Alpha  occ. eigenvalues --   -0.64640  -0.62449  -0.60460  -0.60447  -0.58773
 Alpha  occ. eigenvalues --   -0.58173  -0.54096  -0.46237  -0.45281
 Alpha virt. eigenvalues --   -0.21265  -0.13188  -0.13110  -0.11402  -0.11141
 Alpha virt. eigenvalues --   -0.10016  -0.09789  -0.08615  -0.08029  -0.07611
 Alpha virt. eigenvalues --   -0.06145  -0.05574  -0.05171  -0.04439  -0.04272

 Mulliken charges:
               1
     1  C    1.727087
     2  C   -0.411727
     3  C    1.332186
     4  C   -0.653369
     5  C    2.650655
     6  C   -0.484096
     7  O   -0.634577
     8  C   -0.613633
     9  C    0.946256
    10  O   -0.385728
    11  O   -0.739417
    12  O   -0.516883
    13  H   -1.017998
    14  H   -1.079268
    15  H    0.294820
    16  H    0.117981
    17  H    0.117879
    18  H   -0.383302
    19  H    0.204885
    20  H    0.297489
    21  H    0.230760
 Sum of Mulliken charges =   1.00000

 Dipole moment (field-independent basis, Debye):
    X=              1.3243    Y=              1.5605    Z=              0.0016  Tot=              2.0467
 Quadrupole moment (field-independent basis, Debye-Ang):
   XX=            -41.5437   YY=            -36.7650   ZZ=            -69.7331
   XY=              8.4296   XZ=             -0.0010   YZ=              0.0082

  Exact polarizability: 163.609   2.543 117.937  -0.033  -0.001  59.823
 Approx polarizability: 199.711  -1.510 152.416  -0.005   0.009  83.187

                      1                      2                      3
                      A                      A                      A
 Frequencies --     59.4606                91.5036               202.6305
 Red. masses --      4.6132                 5.2514                 6.5274
 Frc consts  --      0.0096                 0.0259                 0.1579
 IR Inten    --      0.3656                 0.0080                 1.5397

                      4                      5                      6
                      A                      A                      A
 Frequencies --    215.9825               271.9887               282.8718
 Red. masses --      4.6483                 4.9634                 2.5697
 Frc consts  --      0.1278                 0.2163                 0.1211
 IR Inten    --      1.5005                 1.1919                39.9908

                      7                      8                      9
                      A                      A                      A
 Frequencies --    320.7350               348.8393               365.8724
 Red. masses --      1.0957                 5.2895                 1.2292
 Frc consts  --      0.0664                 0.3792                 0.0969
 IR Inten    --      4.2046                11.9720                73.7866

                     10                     11                     12
                      A                      A                      A
 Frequencies --    374.9725               398.0774               427.4350
 Red. masses --      5.5269                 4.9476                 5.4003
 Frc consts  --      0.4579                 0.4619                 0.5813
 IR Inten    --      6.5301                 5.5121                 5.6159

                     13                     14                     15
                      A                      A                      A
 Frequencies --    459.5040               500.3812               526.0287
 Red. masses --      1.1388                 1.1119                 7.3460
 Frc consts  --      0.1417                 0.1640                 1.1976
 IR Inten    --     64.9141               123.9871                 6.3165

                     16                     17                     18
                      A                      A                      A
 Frequencies --    544.4698               571.9014               616.1447
 Red. masses --      3.8507                 2.2584                 8.2274
 Frc consts  --      0.6726                 0.4352                 1.8402
 IR Inten    --      9.3525                 2.9104                 0.2050

                     19                     20                     21
                      A                      A                      A
 Frequencies --    634.0035               646.6191               670.7657
 Red. masses --      3.1286                 3.4209                 2.4693
 Frc consts  --      0.7409                 0.8427                 0.6546
 IR Inten    --      5.2463                27.6201                32.4079

                     22                     23                     24
                      A                      A                      A
 Frequencies --    724.0401               759.3493               827.4126
 Red. masses --      4.1575                 2.3345                 1.4299
 Frc consts  --      1.2841                 0.7931                 0.5768
 IR Inten    --      4.3705                46.5163                26.9179

                     25                     26                     27
                      A                      A                      A
 Frequencies --    845.0957               879.5887               993.1104
 Red. masses --      1.6708                 2.6021                 1.9911
 Frc consts  --      0.7030                 1.1861                 1.1570
 IR Inten    --     11.1110                80.5896                41.6415

                     28                     29                     30
                      A                      A                      A
 Frequencies --   1037.5950              1041.8215              1093.1688
 Red. masses --      1.7977                 2.9588                 2.1953
 Frc consts  --      1.1403                 1.8922                 1.5457
 IR Inten    --      2.1368                 3.3116                56.8689

                     31                     32                     33
                      A                      A                      A
 Frequencies --   1105.7054              1192.5810              1195.3768
 Red. masses --      3.3839                 1.2575                 1.2666
 Frc consts  --      2.4375                 1.0537                 1.0663
 IR Inten    --     89.0485                27.7894                67.2718

                     34                     35                     36
                      A                      A                      A
 Frequencies --   1243.6654              1259.0815              1309.1659
 Red. masses --      1.6784                 2.0794                 1.8613
 Frc consts  --      1.5295                 1.9422                 1.8795
 IR Inten    --    177.5857                12.0743                91.3805

                     37                     38                     39
                      A                      A                      A
 Frequencies --   1327.0725              1368.2998              1408.5453
 Red. masses --      1.9400                 1.1736                 2.6116
 Frc consts  --      2.0129                 1.2946                 3.0528
 IR Inten    --    159.0982                55.5776               336.4069

                     40                     41                     42
                      A                      A                      A
 Frequencies --   1436.0068              1445.6453              1458.6133
 Red. masses --      1.6239                 1.0445                 4.6011
 Frc consts  --      1.9730                 1.2861                 5.7676
 IR Inten    --     46.8406                16.0517                62.4412

                     43                     44                     45
                      A                      A                      A
 Frequencies --   1498.1884              1536.1328              1579.9832
 Red. masses --      2.5396                 3.1663                 5.6544
 Frc consts  --      3.3585                 4.4021                 8.3165
 IR Inten    --    356.7976               419.9446               293.9328

                     46                     47                     48
                      A                      A                      A
 Frequencies --   1599.1081              1651.7412              1721.6132
 Red. masses --      3.6779                 5.8556                 7.5034
 Frc consts  --      5.5412                 9.4125                13.1033
 IR Inten    --    219.2568               205.4660               871.7475

                     49                     50                     51
                      A                      A                      A
 Frequencies --   3081.9910              3157.8263              3203.9241
 Red. masses --      1.0355                 1.0980                 1.1076
 Frc consts  --      5.7953                 6.4510                 6.6986
 IR Inten    --     19.3087                 2.6307                 5.9860

                     52                     53                     54
                      A                      A                      A
 Frequencies --   3207.0578              3209.6376              3532.9202
 Red. masses --      1.0953                 1.0948                 1.0674
 Frc consts  --      6.6374                 6.6448                 7.8492
 IR Inten    --      5.9194                 1.6598               288.3378

                     55                     56                     57
                      A                      A                      A
 Frequencies --   3829.1971              3835.9012              3840.3243
 Red. masses --      1.0668                 1.0671                 1.0667
 Frc consts  --      9.2166                 9.2508                 9.2690
 IR Inten    --    178.1062               278.6728               129.3893

 - Thermochemistry -
 -------------------
 Temperature   298.150 Kelvin.  Pressure   1.00000 Atm.
 Atom     1 has atomic number  6 and mass  12.00000

 Molecular mass:   169.05008 amu.
 Principal axes and moments of inertia in atomic units:
                           1         2         3
     Eigenvalues --  1182.240272365.370403536.48591
           X            0.99942   0.03392   0.00007
           Y           -0.03392   0.99942  -0.00011
           Z           -0.00007   0.00010   1.00000
 This molecule is an asymmetric top.
 Rotational symmetry number  1.
 Warning -- assumption of classical behavior for rotation
           may cause significant error
 Rotational temperatures (Kelvin)      0.07326     0.03662     0.02449
 Rotational constants (GHZ):           1.52654     0.76298     0.51032
 Zero-point vibrational energy     436437.6 (Joules/Mol)
                                  104.31110 (Kcal/Mol)
 Warning -- explicit consideration of  18 degrees of freedom as
           vibrations may cause significant error
 Vibrational temperatures:     85.55   131.65   291.54   310.75   391.33
          (Kelvin)            406.99   461.47   501.90   526.41   539.50
                              572.74   614.98   661.12   719.94   756.84
                              783.37   822.84   886.49   912.19   930.34
                              965.08  1041.73  1092.53  1190.46  1215.90
                             1265.53  1428.86  1492.87  1498.95  1572.82
                             1590.86  1715.86  1719.88  1789.35  1811.54
                             1883.60  1909.36  1968.68  2026.58  2066.09
                             2079.96  2098.62  2155.56  2210.15  2273.24
                             2300.76  2376.48  2477.01  4434.29  4543.40
                             4609.73  4614.24  4617.95  5083.08  5509.35
                             5519.00  5525.36

 Zero-point correction=                           0.166230 (Hartree/Particle)
 Thermal correction to Energy=                    0.176938
 Thermal correction to Enthalpy=                  0.177882
 Thermal correction to Gibbs Free Energy=         0.130327
 Sum of electronic and zero-point Energies=           -610.630335
 Sum of electronic and thermal Energies=              -610.619628
 Sum of electronic and thermal Enthalpies=            -610.618684
 Sum of electronic and thermal Free Energies=         -610.666239

                     E (Thermal)             CV                S
                      KCal/Mol        Cal/Mol-Kelvin    Cal/Mol-Kelvin
 Total                  111.030             42.640            100.089
 Electronic               0.000              0.000              0.000
 Translational            0.889              2.981             41.283
 Rotational               0.889              2.981             30.670
 Vibrational            109.253             36.678             28.135
 Vibration     1          0.597              1.974              4.475
 Vibration     2          0.602              1.955              3.628
 Vibration     3          0.639              1.836              2.109
 Vibration     4          0.645              1.817              1.993
 Vibration     5          0.675              1.725              1.584
 Vibration     6          0.682              1.705              1.516
 Vibration     7          0.706              1.634              1.306
 Vibration     8          0.726              1.578              1.171
 Vibration     9          0.739              1.542              1.097
 Vibration    10          0.746              1.523              1.059
 Vibration    11          0.764              1.474              0.970
 Vibration    12          0.789              1.411              0.867
 Vibration    13          0.817              1.340              0.768
 Vibration    14          0.856              1.249              0.657
 Vibration    15          0.881              1.192              0.596
 Vibration    16          0.900              1.152              0.556
 Vibration    17          0.928              1.092              0.501
 Vibration    18          0.976              0.998              0.423

 Optimization completed.
    -- Stationary point found.
 Normal termination of Gaussian 09 at Sun Dec 15 21:31:39 2024.
