 Gaussian 09, Revision E.01,
 Gaussian 09:  ES64L-G09RevE.01 30-Nov-2015

 ------------------------
 # opt freq m062x/cc-pvtz
 ------------------------

 ----------
 [No Title]
 ----------
 Symbolic Z-matrix:
 Charge =  1 Multiplicity = 1

 SCF Done:  E(RM062X) =  -610.925593884     A.U. after   14 cycles
 SCF Done:  E(RM062X) =  -610.926052938     A.U. after   11 cycles
 SCF Done:  E(RM062X) =  -610.925933554     A.U. after   11 cycles
 SCF Done:  E(RM062X) =  -610.926085074     A.U. after    9 cycles
 SCF Done:  E(RM062X) =  -610.926093394     A.U. after    8 cycles
 SCF Done:  E(RM062X) =  -610.926096331     A.U. after    7 cycles
 SCF Done:  E(RM062X) =  -610.926096866     A.U. after    6 cycles
 Optimization completed.
    -- Stationary point found.
 Normal termination of Gaussian 09 at Thu Dec 19 22:31:55 2024.

 -------------------------------------------------------------------
 #N Geom=AllCheck Guess=TCheck SCRF=Check GenChk RM062X/CC-pVTZ Freq
 -------------------------------------------------------------------

 Structure from the checkpoint file:  "ccpvTZTHAPyang.chk"
 ----------
 [No Title]
 ----------
 Charge =  1 Multiplicity = 1

                         Standard orientation:
 ---------------------------------------------------------------------
 Center     Atomic      Atomic             Coordinates (Angstroms)
 Number     Number       Type             X           Y           Z
 ---------------------------------------------------------------------
      1          6           0        1.532339   -1.264963   -0.000290
      2          6           0        2.267111   -0.083535   -0.000178
      3          6           0        1.627624    1.163250    0.000017
      4          6           0        0.260672    1.207134    0.000110
      5          6           0       -0.553090    0.027845    0.000026
      6          6           0        0.158142   -1.218418   -0.000200
      7          8           0       -0.560967   -2.341532   -0.000321
      8          6           0       -1.970052    0.089138    0.000191
      9          6           0       -2.892055   -1.073502    0.000196
     10          8           0       -2.608830    1.212228    0.000364
     11          8           0       -0.387822    2.394106    0.000269
     12          8           0        3.585769   -0.203899   -0.000280
     13          1           0        2.061256   -2.207836   -0.000462
     14          1           0        2.206008    2.078212    0.000060
     15          1           0        0.011215   -3.118385   -0.000481
     16          1           0       -2.708624   -1.698577   -0.872571
     17          1           0       -2.708374   -1.698780    0.872763
     18          1           0       -3.912263   -0.704706    0.000386
     19          1           0       -2.009847    1.986225    0.000379
     20          1           0        0.215544    3.146221    0.000631
     21          1           0        4.035743    0.648709   -0.000194
 ---------------------------------------------------------------------

 SCF Done:  E(RM062X) =  -610.926096866     A.U. after    1 cycles

 The electronic state is 1-A.
 Alpha  occ. eigenvalues --  -19.85315 -19.85038 -19.82950 -19.82616 -10.83586
 Alpha  occ. eigenvalues --  -10.80913 -10.80169 -10.79872 -10.73175 -10.70998
 Alpha  occ. eigenvalues --  -10.69815 -10.68733  -1.41042  -1.38267  -1.37346
 Alpha  occ. eigenvalues --   -1.36901  -1.13774  -1.06393  -1.02117  -1.00688
 Alpha  occ. eigenvalues --   -0.92102  -0.90346  -0.88155  -0.84184  -0.81991
 Alpha  occ. eigenvalues --   -0.79801  -0.75612  -0.73301  -0.71933  -0.69210
 Alpha  occ. eigenvalues --   -0.69130  -0.68625  -0.68189  -0.66945  -0.65132
 Alpha  occ. eigenvalues --   -0.64811  -0.62603  -0.60767  -0.60556  -0.58910
 Alpha  occ. eigenvalues --   -0.58239  -0.54438  -0.46457  -0.45496
 Alpha virt. eigenvalues --   -0.21091  -0.12461  -0.09379  -0.09309  -0.07514
 Alpha virt. eigenvalues --   -0.07140  -0.04189  -0.02169  -0.01224   0.01530
 Alpha virt. eigenvalues --    0.01658   0.01939   0.05235   0.05951   0.06243

 Mulliken charges:
               1
     1  C   -0.272461
     2  C    0.289843
     3  C   -0.251843
     4  C    0.279242
     5  C   -0.142027
     6  C    0.357681
     7  O   -0.306429
     8  C    0.314099
     9  C   -0.363232
    10  O   -0.203433
    11  O   -0.338553
    12  O   -0.268047
    13  H    0.143061
    14  H    0.109227
    15  H    0.291380
    16  H    0.169172
    17  H    0.169170
    18  H    0.159299
    19  H    0.286523
    20  H    0.296329
    21  H    0.281000
 Sum of Mulliken charges =   1.00000

 Dipole moment (field-independent basis, Debye):
    X=              1.3952    Y=              1.6281    Z=              0.0006  Tot=              2.1441
 Quadrupole moment (field-independent basis, Debye-Ang):
   XX=            -41.6565   YY=            -36.5213   ZZ=            -69.2591
   XY=              8.3658   XZ=             -0.0013   YZ=              0.0054

  Exact polarizability: 157.087   2.726 112.910  -0.008   0.008  52.931
 Approx polarizability: 191.845  -1.511 145.568  -0.008   0.010  74.981

                      1                      2                      3
                      A                      A                      A
 Frequencies --     63.3699                86.5776               202.1268
 Red. masses --      4.7610                 5.0570                 6.0490
 Frc consts  --      0.0113                 0.0223                 0.1456
 IR Inten    --      0.5514                 0.0178                 2.5867

                      4                      5                      6
                      A                      A                      A
 Frequencies --    217.3512               273.5259               278.8082
 Red. masses --      4.6731                 4.9737                 2.1864
 Frc consts  --      0.1301                 0.2192                 0.1001
 IR Inten    --      1.8447                 1.1216                30.3225

                      7                      8                      9
                      A                      A                      A
 Frequencies --    304.2909               351.5063               363.7096
 Red. masses --      1.2290                 5.3379                 1.2172
 Frc consts  --      0.0670                 0.3886                 0.0949
 IR Inten    --      8.3829                12.6050                82.2508

                     10                     11                     12
                      A                      A                      A
 Frequencies --    378.6677               398.1905               430.6006
 Red. masses --      5.5205                 4.9331                 5.3864
 Frc consts  --      0.4664                 0.4608                 0.5884
 IR Inten    --      6.5164                 5.6882                 4.9011

                     13                     14                     15
                      A                      A                      A
 Frequencies --    465.6524               476.4949               529.5145
 Red. masses --      1.1214                 1.1163                 7.4212
 Frc consts  --      0.1433                 0.1493                 1.2260
 IR Inten    --      1.8860               196.3918                 7.0530

                     16                     17                     18
                      A                      A                      A
 Frequencies --    547.8948               582.1419               618.2638
 Red. masses --      3.8141                 2.3259                 8.1364
 Frc consts  --      0.6746                 0.4644                 1.8324
 IR Inten    --      8.7676                 2.6699                 0.1759

                     19                     20                     21
                      A                      A                      A
 Frequencies --    644.5667               651.5317               677.9239
 Red. masses --      3.3028                 3.4359                 2.7207
 Frc consts  --      0.8085                 0.8593                 0.7367
 IR Inten    --      6.8547                27.7975                24.0084

                     22                     23                     24
                      A                      A                      A
 Frequencies --    725.9873               759.8585               829.3092
 Red. masses --      4.2229                 2.7676                 1.3729
 Frc consts  --      1.3113                 0.9415                 0.5563
 IR Inten    --      4.7708                29.0087                16.5869

                     25                     26                     27
                      A                      A                      A
 Frequencies --    844.3597               860.7957               994.6437
 Red. masses --      1.7050                 2.0085                 2.1528
 Frc consts  --      0.7162                 0.8769                 1.2548
 IR Inten    --     57.9231                88.5254                42.5226

                     28                     29                     30
                      A                      A                      A
 Frequencies --   1047.8475              1052.7847              1097.0550
 Red. masses --      3.0970                 1.7865                 2.1332
 Frc consts  --      2.0035                 1.1666                 1.5126
 IR Inten    --      5.6564                 2.1585                74.4545

                     31                     32                     33
                      A                      A                      A
 Frequencies --   1106.7378              1190.3383              1200.5840
 Red. masses --      3.2221                 1.2881                 1.2284
 Frc consts  --      2.3253                 1.0753                 1.0432
 IR Inten    --     86.4708                77.1036                60.5699

                     34                     35                     36
                      A                      A                      A
 Frequencies --   1236.9084              1260.9302              1304.8822
 Red. masses --      1.5826                 2.3284                 2.0013
 Frc consts  --      1.4266                 2.1811                 2.0077
 IR Inten    --    164.6630                30.7406                52.6826

                     37                     38                     39
                      A                      A                      A
 Frequencies --   1316.7960              1389.6919              1405.0415
 Red. masses --      1.9423                 1.1682                 3.2579
 Frc consts  --      1.9843                 1.3293                 3.7894
 IR Inten    --    219.7738                66.0072               321.6750

                     40                     41                     42
                      A                      A                      A
 Frequencies --   1440.2774              1454.8723              1471.3590
 Red. masses --      2.4207                 2.1995                 1.0436
 Frc consts  --      2.9585                 2.7430                 1.3312
 IR Inten    --     40.7061                73.0790                14.8310

                     43                     44                     45
                      A                      A                      A
 Frequencies --   1495.3023              1538.9894              1579.2078
 Red. masses --      2.2215                 2.9460                 4.8954
 Frc consts  --      2.9265                 4.1111                 7.1931
 IR Inten    --    501.1503               319.2209               267.6926

                     46                     47                     48
                      A                      A                      A
 Frequencies --   1594.0340              1640.5583              1713.1882
 Red. masses --      3.7453                 5.8238                 7.1753
 Frc consts  --      5.6070                 9.2350                12.4080
 IR Inten    --    163.5118               207.2173               848.0818

                     49                     50                     51
                      A                      A                      A
 Frequencies --   3076.4164              3141.8351              3189.9152
 Red. masses --      1.0355                 1.0975                 1.1064
 Frc consts  --      5.7740                 6.3829                 6.6334
 IR Inten    --     19.8609                 3.1441                 5.4814

                     52                     53                     54
                      A                      A                      A
 Frequencies --   3200.4362              3204.5246              3509.7891
 Red. masses --      1.0936                 1.0941                 1.0673
 Frc consts  --      6.6000                 6.6195                 7.7467
 IR Inten    --      0.9581                 6.2291               312.8261

                     55                     56                     57
                      A                      A                      A
 Frequencies --   3838.9992              3842.7924              3844.5338
 Red. masses --      1.0666                 1.0667                 1.0665
 Frc consts  --      9.2615                 9.2808                 9.2876
 IR Inten    --    138.8623               398.2954                69.0720

 - Thermochemistry -
 -------------------
 Temperature   298.150 Kelvin.  Pressure   1.00000 Atm.
 Atom     1 has atomic number  6 and mass  12.00000

 Molecular mass:   169.05008 amu.
 Principal axes and moments of inertia in atomic units:
                           1         2         3
     Eigenvalues --  1175.593592346.663393511.29372
           X            0.99942   0.03412   0.00008
           Y           -0.03412   0.99942  -0.00013
           Z           -0.00009   0.00012   1.00000
 This molecule is an asymmetric top.
 Rotational symmetry number  1.
 Warning -- assumption of classical behavior for rotation
           may cause significant error
 Rotational temperatures (Kelvin)      0.07368     0.03691     0.02467
 Rotational constants (GHZ):           1.53517     0.76907     0.51398
 Zero-point vibrational energy     436303.8 (Joules/Mol)
                                  104.27910 (Kcal/Mol)
 Warning -- explicit consideration of  18 degrees of freedom as
           vibrations may cause significant error
 Vibrational temperatures:     91.17   124.57   290.82   312.72   393.54
          (Kelvin)            401.14   437.81   505.74   523.30   544.82
                              572.91   619.54   669.97   685.57   761.85
                              788.30   837.57   889.54   927.39   937.41
                              975.38  1044.53  1093.27  1193.19  1214.84
                             1238.49  1431.07  1507.62  1514.72  1578.42
                             1592.35  1712.63  1727.37  1779.63  1814.20
                             1877.43  1894.57  1999.45  2021.54  2072.24
                             2093.23  2116.95  2151.40  2214.26  2272.12
                             2293.46  2360.39  2464.89  4426.27  4520.39
                             4589.57  4604.71  4610.59  5049.80  5523.46
                             5528.91  5531.42

 Zero-point correction=                           0.166179 (Hartree/Particle)
 Thermal correction to Energy=                    0.176893
 Thermal correction to Enthalpy=                  0.177838
 Thermal correction to Gibbs Free Energy=         0.130281
 Sum of electronic and zero-point Energies=           -610.759918
 Sum of electronic and thermal Energies=              -610.749203
 Sum of electronic and thermal Enthalpies=            -610.748259
 Sum of electronic and thermal Free Energies=         -610.795816

                     E (Thermal)             CV                S
                      KCal/Mol        Cal/Mol-Kelvin    Cal/Mol-Kelvin
 Total                  111.002             42.603            100.091
 Electronic               0.000              0.000              0.000
 Translational            0.889              2.981             41.283
 Rotational               0.889              2.981             30.650
 Vibrational            109.225             36.642             28.158
 Vibration     1          0.597              1.972              4.349
 Vibration     2          0.601              1.959              3.736
 Vibration     3          0.639              1.837              2.114
 Vibration     4          0.646              1.815              1.981
 Vibration     5          0.676              1.722              1.574
 Vibration     6          0.679              1.713              1.541
 Vibration     7          0.695              1.666              1.393
 Vibration     8          0.728              1.572              1.159
 Vibration     9          0.737              1.547              1.106
 Vibration    10          0.749              1.516              1.044
 Vibration    11          0.764              1.474              0.969
 Vibration    12          0.792              1.404              0.857
 Vibration    13          0.823              1.326              0.750
 Vibration    14          0.833              1.302              0.720
 Vibration    15          0.884              1.185              0.588
 Vibration    16          0.903              1.144              0.549
 Vibration    17          0.939              1.070              0.481
 Vibration    18          0.978              0.993              0.419

 Optimization completed.
    -- Stationary point found.
 Normal termination of Gaussian 09 at Thu Dec 19 22:40:53 2024.
