 Gaussian 09, Revision E.01,
 Gaussian 09:  ES64L-G09RevE.01 30-Nov-2015

 ------------------------
 # opt freq m062x/cc-pvtz
 ------------------------

 ----------
 [No Title]
 ----------
 Symbolic Z-matrix:
 Charge =  0 Multiplicity = 1

 SCF Done:  E(RM062X) =  -610.573552762     A.U. after   14 cycles
 SCF Done:  E(RM062X) =  -610.574042349     A.U. after   11 cycles
 SCF Done:  E(RM062X) =  -610.573988043     A.U. after   12 cycles
 SCF Done:  E(RM062X) =  -610.574058404     A.U. after   10 cycles
 SCF Done:  E(RM062X) =  -610.574064965     A.U. after    8 cycles
 SCF Done:  E(RM062X) =  -610.574066665     A.U. after    8 cycles
 SCF Done:  E(RM062X) =  -610.574065703     A.U. after    8 cycles
 SCF Done:  E(RM062X) =  -610.574067410     A.U. after    8 cycles
 Optimization completed.
    -- Stationary point found.
 Normal termination of Gaussian 09 at Thu Dec 19 22:11:37 2024.

 -------------------------------------------------------------------
 #N Geom=AllCheck Guess=TCheck SCRF=Check GenChk RM062X/CC-pVTZ Freq
 -------------------------------------------------------------------

 Structure from the checkpoint file:  "ccpvTZdzTHAP.chk"
 ----------
 [No Title]
 ----------
 Charge =  0 Multiplicity = 1

                         Standard orientation:
 ---------------------------------------------------------------------
 Center     Atomic      Atomic             Coordinates (Angstroms)
 Number     Number       Type             X           Y           Z
 ---------------------------------------------------------------------
      1          6           0        1.513839    1.246160   -0.000051
      2          6           0        2.248343    0.062763   -0.000015
      3          6           0        1.620603   -1.167018    0.000033
      4          6           0        0.230575   -1.224999    0.000046
      5          6           0       -0.560951   -0.042083   -0.000007
      6          6           0        0.135558    1.186292   -0.000045
      7          8           0       -0.581821    2.337665   -0.000090
      8          6           0       -2.022750   -0.174470   -0.000028
      9          6           0       -2.936885    1.019351    0.000008
     10          8           0       -2.542349   -1.291476    0.000018
     11          8           0       -0.323603   -2.429553    0.000131
     12          8           0        3.593646    0.185569   -0.000024
     13          1           0        2.035990    2.193123   -0.000085
     14          1           0        2.176748   -2.094389    0.000071
     15          1           0        0.024770    3.083454   -0.000136
     16          1           0       -2.752457    1.642646   -0.872983
     17          1           0       -3.958569    0.652072    0.000019
     18          1           0       -2.752431    1.642629    0.873006
     19          1           0       -1.308458   -2.286213    0.000182
     20          1           0        3.997428   -0.686939    0.000005
 ---------------------------------------------------------------------

 SCF Done:  E(RM062X) =  -610.574067410     A.U. after    1 cycles

 The electronic state is 1-A.
 Alpha  occ. eigenvalues --  -19.67616 -19.67254 -19.63895 -19.62267 -10.64357
 Alpha  occ. eigenvalues --  -10.63455 -10.62956 -10.62671 -10.55310 -10.54300
 Alpha  occ. eigenvalues --  -10.53814 -10.53506  -1.21485  -1.20968  -1.19935
 Alpha  occ. eigenvalues --   -1.16475  -0.96723  -0.88006  -0.85200  -0.83077
 Alpha  occ. eigenvalues --   -0.74602  -0.72670  -0.68122  -0.66241  -0.60433
 Alpha  occ. eigenvalues --   -0.59572  -0.58347  -0.56044  -0.54404  -0.52113
 Alpha  occ. eigenvalues --   -0.51397  -0.51247  -0.49571  -0.49320  -0.48691
 Alpha  occ. eigenvalues --   -0.48267  -0.45295  -0.43804  -0.43491  -0.43321
 Alpha  occ. eigenvalues --   -0.37531  -0.33626  -0.29579  -0.28390
 Alpha virt. eigenvalues --   -0.01806   0.03596   0.04842   0.05578   0.07585
 Alpha virt. eigenvalues --    0.09245   0.11586   0.12592   0.13958   0.14978
 Alpha virt. eigenvalues --    0.15401   0.19174   0.20621   0.22090   0.23713

 Mulliken charges:
               1
     1  C   -0.323282
     2  C    0.294343
     3  C   -0.319908
     4  C    0.277776
     5  C   -0.215879
     6  C    0.336758
     7  O   -0.338004
     8  C    0.282789
     9  C   -0.391248
    10  O   -0.358600
    11  O   -0.342981
    12  O   -0.331528
    13  H    0.103922
    14  H    0.116172
    15  H    0.264960
    16  H    0.138986
    17  H    0.127208
    18  H    0.138990
    19  H    0.275275
    20  H    0.264251
 Sum of Mulliken charges =  -0.00000

 Dipole moment (field-independent basis, Debye):
    X=              2.1308    Y=              2.9097    Z=             -0.0000  Tot=              3.6064
 Quadrupole moment (field-independent basis, Debye-Ang):
   XX=            -65.5744   YY=            -64.7205   ZZ=            -71.2212
   XY=             -8.0871   XZ=             -0.0001   YZ=             -0.0005

  Exact polarizability: 145.292   0.586 115.994  -0.000  -0.002  55.076
 Approx polarizability: 171.486   8.155 156.443  -0.000  -0.003  78.200

                      1                      2                      3
                      A                      A                      A
 Frequencies --     55.9035               104.4038               202.6661
 Red. masses --      3.6668                10.4865                 2.4709
 Frc consts  --      0.0068                 0.0673                 0.0598
 IR Inten    --      1.0718                 0.1091                 3.6701

                      4                      5                      6
                      A                      A                      A
 Frequencies --    228.7230               236.7286               269.6028
 Red. masses --      2.1212                 2.3251                 4.6085
 Frc consts  --      0.0654                 0.0768                 0.1974
 IR Inten    --      0.1143                 0.5873                12.0883

                      7                      8                      9
                      A                      A                      A
 Frequencies --    290.8049               342.2214               363.8440
 Red. masses --      3.9589                 5.7250                 5.6063
 Frc consts  --      0.1973                 0.3950                 0.4373
 IR Inten    --      5.3508                 6.4114                 4.6922

                     10                     11                     12
                      A                      A                      A
 Frequencies --    379.4607               382.0611               431.3574
 Red. masses --      1.1930                 4.7015                 1.1069
 Frc consts  --      0.1012                 0.4043                 0.1213
 IR Inten    --     63.4594                 4.9176               121.6956

                     13                     14                     15
                      A                      A                      A
 Frequencies --    437.7100               535.4563               583.1781
 Red. masses --      6.3697                 6.9628                 5.7351
 Frc consts  --      0.7190                 1.1762                 1.1492
 IR Inten    --      4.3764                 9.1216                24.4456

                     16                     17                     18
                      A                      A                      A
 Frequencies --    588.3590               621.8381               647.0617
 Red. masses --      2.7178                 7.8075                 2.8641
 Frc consts  --      0.5543                 1.7788                 0.7065
 IR Inten    --      0.3233                 5.6955                 0.2858

                     19                     20                     21
                      A                      A                      A
 Frequencies --    652.3844               667.8713               723.4641
 Red. masses --      3.9895                 2.5357                 3.9540
 Frc consts  --      1.0004                 0.6664                 1.2193
 IR Inten    --     16.4366                16.9954                14.5537

                     22                     23                     24
                      A                      A                      A
 Frequencies --    764.0948               817.5145               850.2868
 Red. masses --      3.0277                 1.9660                 2.1186
 Frc consts  --      1.0415                 0.7742                 0.9024
 IR Inten    --     10.3632                16.2055                55.3782

                     25                     26                     27
                      A                      A                      A
 Frequencies --    931.8138               983.4927              1047.8809
 Red. masses --      1.0753                 2.1404                 3.1871
 Frc consts  --      0.5501                 1.2198                 2.0619
 IR Inten    --     79.9118                40.7907                 8.2388

                     28                     29                     30
                      A                      A                      A
 Frequencies --   1051.7713              1099.9745              1113.2616
 Red. masses --      1.9114                 2.4539                 4.2146
 Frc consts  --      1.2458                 1.7493                 3.0775
 IR Inten    --      5.9531                35.7962                68.3009

                     31                     32                     33
                      A                      A                      A
 Frequencies --   1187.0468              1214.4233              1246.0754
 Red. masses --      1.3662                 1.5239                 1.8314
 Frc consts  --      1.1342                 1.3242                 1.6754
 IR Inten    --    131.8123                39.0330               216.1898

                     34                     35                     36
                      A                      A                      A
 Frequencies --   1288.5124              1318.3058              1350.5184
 Red. masses --      1.6465                 3.1044                 3.0191
 Frc consts  --      1.6106                 3.1788                 3.2444
 IR Inten    --    234.8450               132.1192               103.8449

                     37                     38                     39
                      A                      A                      A
 Frequencies --   1402.9221              1421.3280              1453.2990
 Red. masses --      1.6219                 2.8228                 1.1659
 Frc consts  --      1.8807                 3.3599                 1.4509
 IR Inten    --    110.0895                 0.4879                30.8410

                     40                     41                     42
                      A                      A                      A
 Frequencies --   1472.9493              1479.9193              1517.6363
 Red. masses --      1.0460                 2.8676                 4.0741
 Frc consts  --      1.3371                 3.7004                 5.5287
 IR Inten    --      9.4184                16.3409               216.2150

                     43                     44                     45
                      A                      A                      A
 Frequencies --   1581.2194              1675.5685              1706.0066
 Red. masses --      2.7380                 4.7281                 7.7401
 Frc consts  --      4.0333                 7.8210                13.2726
 IR Inten    --     86.4146               174.8630               425.5934

                     46                     47                     48
                      A                      A                      A
 Frequencies --   1725.4242              3073.7282              3144.7172
 Red. masses --      5.7029                 1.0345                 1.0988
 Frc consts  --     10.0032                 5.7586                 6.4022
 IR Inten    --    547.4110                 0.7645                 1.5425

                     49                     50                     51
                      A                      A                      A
 Frequencies --   3162.5668              3177.8108              3196.1957
 Red. masses --      1.0735                 1.1048                 1.0926
 Frc consts  --      6.3260                 6.5732                 6.5760
 IR Inten    --    488.8017                41.7939                 0.8567

                     52                     53                     54
                      A                      A                      A
 Frequencies --   3206.8144              3873.0469              3877.3017
 Red. masses --      1.0925                 1.0659                 1.0660
 Frc consts  --      6.6196                 9.4206                 9.4418
 IR Inten    --      3.2314               110.2538                88.9895

 - Thermochemistry -
 -------------------
 Temperature   298.150 Kelvin.  Pressure   1.00000 Atm.
 Atom     1 has atomic number  6 and mass  12.00000

 Molecular mass:   168.04226 amu.
 Principal axes and moments of inertia in atomic units:
                           1         2         3
     Eigenvalues --  1154.637542334.353613478.01965
           X            0.99941  -0.03438   0.00000
           Y            0.03438   0.99941   0.00004
           Z           -0.00000  -0.00004   1.00000
 This molecule is an asymmetric top.
 Rotational symmetry number  1.
 Warning -- assumption of classical behavior for rotation
           may cause significant error
 Rotational temperatures (Kelvin)      0.07501     0.03710     0.02490
 Rotational constants (GHZ):           1.56304     0.77312     0.51890
 Zero-point vibrational energy     401697.2 (Joules/Mol)
                                   96.00793 (Kcal/Mol)
 Warning -- explicit consideration of  16 degrees of freedom as
           vibrations may cause significant error
 Vibrational temperatures:     80.43   150.21   291.59   329.08   340.60
          (Kelvin)            387.90   418.40   492.38   523.49   545.96
                              549.70   620.63   629.77   770.40   839.06
                              846.52   894.69   930.98   938.63   960.92
                             1040.90  1099.36  1176.22  1223.37  1340.67
                             1415.02  1507.67  1513.26  1582.62  1601.73
                             1707.89  1747.28  1792.82  1853.88  1896.75
                             1943.09  2018.49  2044.97  2090.97  2119.24
                             2129.27  2183.54  2275.02  2410.77  2454.56
                             2482.50  4422.40  4524.54  4550.22  4572.16
                             4598.61  4613.88  5572.44  5578.57

 Zero-point correction=                           0.152998 (Hartree/Particle)
 Thermal correction to Energy=                    0.163509
 Thermal correction to Enthalpy=                  0.164453
 Thermal correction to Gibbs Free Energy=         0.117168
 Sum of electronic and zero-point Energies=           -610.421069
 Sum of electronic and thermal Energies=              -610.410559
 Sum of electronic and thermal Enthalpies=            -610.409614
 Sum of electronic and thermal Free Energies=         -610.456899

                     E (Thermal)             CV                S
                      KCal/Mol        Cal/Mol-Kelvin    Cal/Mol-Kelvin
 Total                  102.603             41.140             99.519
 Electronic               0.000              0.000              0.000
 Translational            0.889              2.981             41.265
 Rotational               0.889              2.981             30.617
 Vibrational            100.826             35.178             27.637
 Vibration     1          0.596              1.975              4.597
 Vibration     2          0.605              1.946              3.370
 Vibration     3          0.639              1.836              2.109
 Vibration     4          0.651              1.797              1.889
 Vibration     5          0.656              1.784              1.827
 Vibration     6          0.674              1.729              1.599
 Vibration     7          0.687              1.691              1.469
 Vibration     8          0.721              1.591              1.202
 Vibration     9          0.737              1.547              1.106
 Vibration    10          0.749              1.514              1.041
 Vibration    11          0.752              1.508              1.031
 Vibration    12          0.792              1.402              0.854
 Vibration    13          0.798              1.388              0.834
 Vibration    14          0.890              1.172              0.575
 Vibration    15          0.940              1.068              0.480
 Vibration    16          0.946              1.057              0.470

 Optimization completed.
    -- Stationary point found.
 Normal termination of Gaussian 09 at Thu Dec 19 22:19:12 2024.
