 Gaussian 09, Revision E.01,
 Gaussian 09:  ES64L-G09RevE.01 30-Nov-2015

 ----------------------------
 # opt freq m062x/aug-cc-pvdz
 ----------------------------

 ----------
 [No Title]
 ----------
 Symbolic Z-matrix:
 Charge =  1 Multiplicity = 1

 SCF Done:  E(RM062X) =  -654.011175947     A.U. after   21 cycles
 SCF Done:  E(RM062X) =  -654.011352937     A.U. after   20 cycles
 SCF Done:  E(RM062X) =  -654.011303393     A.U. after   18 cycles
 SCF Done:  E(RM062X) =  -654.011337729     A.U. after   12 cycles
 SCF Done:  E(RM062X) =  -654.011354655     A.U. after   20 cycles
 SCF Done:  E(RM062X) =  -654.011355524     A.U. after   15 cycles
 SCF Done:  E(RM062X) =  -654.011359041     A.U. after   17 cycles
 SCF Done:  E(RM062X) =  -654.011358693     A.U. after   17 cycles
 Optimization completed.
    -- Stationary point found.
 Normal termination of Gaussian 09 at Sun Dec 15 06:29:58 2024.

 ----------------------------------------------------------------------
 #N Geom=AllCheck Guess=TCheck SCRF=Check GenChk RM062X/Aug-CC-pVDZ Fre
 q
 ----------------------------------------------------------------------

 Structure from the checkpoint file:  "pvdzDMANyang.chk"
 ----------
 [No Title]
 ----------
 Charge =  1 Multiplicity = 1

                         Standard orientation:
 ---------------------------------------------------------------------
 Center     Atomic      Atomic             Coordinates (Angstroms)
 Number     Number       Type             X           Y           Z
 ---------------------------------------------------------------------
      1          6           0        0.805705   -2.417981    0.000051
      2          6           0        2.216933   -2.344211    0.000030
      3          6           0        2.832392   -1.118565   -0.000011
      4          6           0        2.077149    0.084999   -0.000032
      5          6           0        0.648997    0.030329   -0.000015
      6          6           0        0.058193   -1.269500    0.000025
      7          6           0        2.732920    1.344387   -0.000065
      8          6           0        2.012123    2.510710   -0.000076
      9          6           0        0.599322    2.465155   -0.000055
     10          6           0       -0.072427    1.267081   -0.000025
     11          7           0       -1.410654   -1.359470    0.000041
     12          7           0       -1.528482    1.234449   -0.000001
     13          6           0       -1.950778   -1.984920   -1.233318
     14          6           0       -1.950767   -1.984703    1.233518
     15          6           0       -2.101584    1.835404    1.216565
     16          6           0       -2.101604    1.835195   -1.216661
     17          1           0        0.319602   -3.393209    0.000085
     18          1           0        2.803451   -3.260120    0.000045
     19          1           0        3.919076   -1.048612   -0.000024
     20          1           0        3.821512    1.365030   -0.000078
     21          1           0        2.519058    3.473531   -0.000098
     22          1           0        0.036902    3.398174   -0.000062
     23          1           0       -1.692720   -0.283568   -0.000063
     24          1           0       -3.040331   -1.884507   -1.227373
     25          1           0       -1.525980   -1.469553   -2.098711
     26          1           0       -1.675990   -3.043604   -1.263341
     27          1           0       -3.040319   -1.884285    1.227567
     28          1           0       -1.525956   -1.469185    2.098815
     29          1           0       -1.675984   -3.043383    1.263726
     30          1           0       -1.649697    1.371179    2.099143
     31          1           0       -1.921154    2.919072    1.256955
     32          1           0       -3.183022    1.659222    1.224548
     33          1           0       -1.649716    1.370832   -2.099165
     34          1           0       -3.183040    1.659000   -1.224607
     35          1           0       -1.921182    2.918859   -1.257230
 ---------------------------------------------------------------------

 SCF Done:  E(RM062X) =  -654.011358694     A.U. after    3 cycles

 The electronic state is 1-A.
 Alpha  occ. eigenvalues --  -14.99008 -14.92667 -10.73937 -10.73537 -10.73536
 Alpha  occ. eigenvalues --  -10.72470 -10.70846 -10.70638 -10.70637 -10.69793
 Alpha  occ. eigenvalues --  -10.69613 -10.68629 -10.68470 -10.68375 -10.67972
 Alpha  occ. eigenvalues --  -10.67882  -1.25463  -1.19500  -1.11274  -1.05759
 Alpha  occ. eigenvalues --   -1.00918  -0.97876  -0.97630  -0.95605  -0.94245
 Alpha  occ. eigenvalues --   -0.91267  -0.87797  -0.84919  -0.82738  -0.79801
 Alpha  occ. eigenvalues --   -0.75722  -0.73838  -0.73067  -0.70589  -0.70214
 Alpha  occ. eigenvalues --   -0.69164  -0.66644  -0.66596  -0.65950  -0.63737
 Alpha  occ. eigenvalues --   -0.63017  -0.62723  -0.61374  -0.61026  -0.60287
 Alpha  occ. eigenvalues --   -0.59984  -0.59055  -0.58752  -0.58087  -0.56958
 Alpha  occ. eigenvalues --   -0.56567  -0.53655  -0.53012  -0.52571  -0.47745
 Alpha  occ. eigenvalues --   -0.44702  -0.43218  -0.39979
 Alpha virt. eigenvalues --   -0.15403  -0.12534  -0.11637  -0.09510  -0.09444
 Alpha virt. eigenvalues --   -0.09318  -0.08326  -0.08148  -0.07589  -0.07079
 Alpha virt. eigenvalues --   -0.06811  -0.06553  -0.06251  -0.05372  -0.05306

 Mulliken charges:
               1
     1  C    0.306320
     2  C   -0.293710
     3  C    1.456137
     4  C    1.031705
     5  C   -0.237243
     6  C    1.014466
     7  C    1.357589
     8  C   -0.296161
     9  C    0.029131
    10  C    0.331242
    11  N   -0.208771
    12  N   -0.491860
    13  C    1.515941
    14  C    1.515912
    15  C    1.557031
    16  C    1.557000
    17  H   -1.057210
    18  H   -0.703971
    19  H   -0.943252
    20  H   -0.941775
    21  H   -0.705262
    22  H   -1.069611
    23  H   -0.213257
    24  H   -0.303698
    25  H   -0.200116
    26  H   -0.302493
    27  H   -0.303718
    28  H   -0.200090
    29  H   -0.302509
    30  H   -0.285476
    31  H   -0.324537
    32  H   -0.338840
    33  H   -0.285445
    34  H   -0.338868
    35  H   -0.324600
 Sum of Mulliken charges =   1.00000

 Dipole moment (field-independent basis, Debye):
    X=             -3.9430    Y=             -1.7650    Z=              0.0001  Tot=              4.3200
 Quadrupole moment (field-independent basis, Debye-Ang):
   XX=            -63.0785   YY=            -63.8903   ZZ=            -91.9232
   XY=              3.1713   XZ=             -0.0004   YZ=             -0.0005

  Exact polarizability: 198.899  -1.145 213.312  -0.011   0.033 116.297
 Approx polarizability: 247.299  -1.602 286.751  -0.001  -0.003 156.516

                      1                      2                      3
                      A                      A                      A
 Frequencies --     14.9787                68.6966               117.9597
 Red. masses --      3.4399                 2.7243                 2.2605
 Frc consts  --      0.0005                 0.0076                 0.0185
 IR Inten    --      0.0630                 0.2051                 0.5033

                      4                      5                      6
                      A                      A                      A
 Frequencies --    129.6559               162.9943               178.7765
 Red. masses --      3.3672                 2.8294                 2.9361
 Frc consts  --      0.0334                 0.0443                 0.0553
 IR Inten    --      0.1790                17.6067                 3.4974

                      7                      8                      9
                      A                      A                      A
 Frequencies --    186.8911               212.0440               220.7484
 Red. masses --      3.1168                 1.2582                 1.3671
 Frc consts  --      0.0641                 0.0333                 0.0393
 IR Inten    --      0.3748                 0.4059                 1.0155

                     10                     11                     12
                      A                      A                      A
 Frequencies --    243.1852               253.9912               263.9313
 Red. masses --      1.0764                 1.8467                 1.4688
 Frc consts  --      0.0375                 0.0702                 0.0603
 IR Inten    --      0.0258                 3.5445                 0.4927

                     13                     14                     15
                      A                      A                      A
 Frequencies --    277.0824               321.3666               325.5109
 Red. masses --      1.9396                 3.2630                 2.6369
 Frc consts  --      0.0877                 0.1985                 0.1646
 IR Inten    --      0.5032                 0.1723                 2.3202

                     16                     17                     18
                      A                      A                      A
 Frequencies --    384.7801               427.7216               448.0841
 Red. masses --      3.6141                 3.1377                 2.8705
 Frc consts  --      0.3153                 0.3382                 0.3396
 IR Inten    --     12.1710                23.9377                 0.3934

                     19                     20                     21
                      A                      A                      A
 Frequencies --    469.5516               501.5231               530.8156
 Red. masses --      3.2270                 5.3078                 4.9466
 Frc consts  --      0.4192                 0.7866                 0.8212
 IR Inten    --      0.6621                20.7061                 7.4598

                     22                     23                     24
                      A                      A                      A
 Frequencies --    536.1573               543.7573               568.5263
 Red. masses --      4.0307                 3.4567                 3.8245
 Frc consts  --      0.6827                 0.6022                 0.7283
 IR Inten    --     13.5570                 0.0002                 3.3470

                     25                     26                     27
                      A                      A                      A
 Frequencies --    651.8832               671.9197               683.1692
 Red. masses --      3.9003                 2.6174                 3.5330
 Frc consts  --      0.9765                 0.6962                 0.9715
 IR Inten    --      0.0800                 0.3898                62.4096

                     28                     29                     30
                      A                      A                      A
 Frequencies --    777.0578               779.6875               787.9819
 Red. masses --      1.9359                 3.6153                 1.4069
 Frc consts  --      0.6887                 1.2949                 0.5147
 IR Inten    --     53.9833                12.0552                 1.4612

                     31                     32                     33
                      A                      A                      A
 Frequencies --    793.8284               853.8384               905.2184
 Red. masses --      5.0200                 2.8526                 3.8182
 Frc consts  --      1.8638                 1.2253                 1.8434
 IR Inten    --      0.7521                18.2454                42.8721

                     34                     35                     36
                      A                      A                      A
 Frequencies --    915.2973               938.7842               939.2512
 Red. masses --      1.4454                 3.5589                 1.4687
 Frc consts  --      0.7134                 1.8480                 0.7634
 IR Inten    --      2.3037                31.4060                 1.8335

                     37                     38                     39
                      A                      A                      A
 Frequencies --    995.7968              1011.4676              1030.1833
 Red. masses --      1.3486                 1.3579                 2.8812
 Frc consts  --      0.7879                 0.8185                 1.8016
 IR Inten    --      0.5847                 0.3134                28.2779

                     40                     41                     42
                      A                      A                      A
 Frequencies --   1042.3909              1052.4601              1054.9147
 Red. masses --      1.6795                 3.0613                 1.5442
 Frc consts  --      1.0752                 1.9979                 1.0125
 IR Inten    --      9.7755                18.1166                13.1136

                     43                     44                     45
                      A                      A                      A
 Frequencies --   1083.0163              1102.2169              1108.0072
 Red. masses --      1.2276                 1.2586                 1.7250
 Frc consts  --      0.8483                 0.9009                 1.2477
 IR Inten    --      1.5487                 1.4843                 2.3256

                     46                     47                     48
                      A                      A                      A
 Frequencies --   1110.0581              1170.2174              1181.1771
 Red. masses --      1.8985                 1.1874                 1.3691
 Frc consts  --      1.3784                 0.9581                 1.1255
 IR Inten    --     10.9732                 1.3391                 4.6433

                     49                     50                     51
                      A                      A                      A
 Frequencies --   1189.0338              1197.4018              1202.5671
 Red. masses --      1.5397                 1.3026                 2.6891
 Frc consts  --      1.2826                 1.1004                 2.2913
 IR Inten    --      5.8083                14.8394                 9.0577

                     52                     53                     54
                      A                      A                      A
 Frequencies --   1222.9513              1226.2209              1236.1174
 Red. masses --      1.5949                 3.6981                 1.7473
 Frc consts  --      1.4054                 3.2762                 1.5731
 IR Inten    --     46.2581                13.7381                49.2805

                     55                     56                     57
                      A                      A                      A
 Frequencies --   1243.4583              1287.7419              1309.0455
 Red. masses --      1.9274                 2.3128                 2.3361
 Frc consts  --      1.7558                 2.2597                 2.3586
 IR Inten    --      7.0667                 0.3960                12.3260

                     58                     59                     60
                      A                      A                      A
 Frequencies --   1381.3378              1398.4883              1416.7571
 Red. masses --      2.0372                 3.8897                 1.1493
 Frc consts  --      2.2903                 4.4822                 1.3591
 IR Inten    --    129.1914                 8.3212                 0.0463

                     61                     62                     63
                      A                      A                      A
 Frequencies --   1423.5817              1425.8557              1427.8097
 Red. masses --      1.1568                 3.1800                 1.7090
 Frc consts  --      1.3813                 3.8092                 2.0527
 IR Inten    --      8.8661                12.5317                30.1223

                     64                     65                     66
                      A                      A                      A
 Frequencies --   1455.8563              1456.4540              1463.7251
 Red. masses --      1.2647                 1.0403                 1.0469
 Frc consts  --      1.5793                 1.3002                 1.3215
 IR Inten    --      1.3218                 0.7281                 0.7176

                     67                     68                     69
                      A                      A                      A
 Frequencies --   1466.4898              1467.6118              1472.5590
 Red. masses --      1.7857                 1.0496                 1.0551
 Frc consts  --      2.2626                 1.3320                 1.3480
 IR Inten    --      3.5376                 4.2618                12.2231

                     70                     71                     72
                      A                      A                      A
 Frequencies --   1473.4396              1483.4933              1485.4669
 Red. masses --      1.0795                 1.1116                 1.0472
 Frc consts  --      1.3809                 1.4413                 1.3614
 IR Inten    --     14.8044                 3.7735                 5.4381

                     73                     74                     75
                      A                      A                      A
 Frequencies --   1495.7666              1511.7490              1548.1690
 Red. masses --      1.1274                 2.8240                 2.4984
 Frc consts  --      1.4861                 3.8025                 3.5282
 IR Inten    --     36.2364                 9.3979               246.4228

                     76                     77                     78
                      A                      A                      A
 Frequencies --   1596.8196              1642.9030              1663.4648
 Red. masses --      1.9290                 1.0973                 7.3909
 Frc consts  --      2.8979                 1.7451                12.0497
 IR Inten    --    242.1908                 5.3472                 1.9773

                     79                     80                     81
                      A                      A                      A
 Frequencies --   1694.6452              1722.8566              2075.3335
 Red. masses --      5.1227                 7.0286                 1.1229
 Frc consts  --      8.6677                12.2918                 2.8495
 IR Inten    --     46.6342                40.1358              1155.1757

                     82                     83                     84
                      A                      A                      A
 Frequencies --   3040.4672              3043.5186              3084.8023
 Red. masses --      1.0356                 1.0366                 1.0317
 Frc consts  --      5.6407                 5.6574                 5.7843
 IR Inten    --     12.8023                13.7337                 2.1415

                     85                     86                     87
                      A                      A                      A
 Frequencies --   3088.0461              3122.2723              3123.4006
 Red. masses --      1.0326                 1.1012                 1.1024
 Frc consts  --      5.8017                 6.3250                 6.3366
 IR Inten    --      3.4730                18.1007                 1.0182

                     88                     89                     90
                      A                      A                      A
 Frequencies --   3153.4638              3155.7982              3184.8518
 Red. masses --      1.1061                 1.1066                 1.1071
 Frc consts  --      6.4805                 6.4934                 6.6166
 IR Inten    --      2.1222                15.0274                 0.1909

                     91                     92                     93
                      A                      A                      A
 Frequencies --   3185.7405              3186.8185              3194.6128
 Red. masses --      1.0937                 1.1082                 1.1073
 Frc consts  --      6.5401                 6.6309                 6.6583
 IR Inten    --      3.8861                 4.5927                 0.0427

                     94                     95                     96
                      A                      A                      A
 Frequencies --   3195.2943              3196.6456              3203.4078
 Red. masses --      1.0894                 1.1049                 1.0929
 Frc consts  --      6.5532                 6.6522                 6.6077
 IR Inten    --      0.7046                 1.0601                 1.6523

                     97                     98                     99
                      A                      A                      A
 Frequencies --   3209.0459              3216.2013              3241.6307
 Red. masses --      1.0921                 1.0995                 1.0971
 Frc consts  --      6.6262                 6.7012                 6.7927
 IR Inten    --      0.2221                 0.1461                 0.1618

 - Thermochemistry -
 -------------------
 Temperature   298.150 Kelvin.  Pressure   1.00000 Atm.
 Atom     1 has atomic number  6 and mass  12.00000

 Molecular mass:   215.15482 amu.
 Principal axes and moments of inertia in atomic units:
                           1         2         3
     Eigenvalues --  2824.037692969.596685063.29068
           X            1.00000   0.00302   0.00001
           Y           -0.00302   1.00000   0.00002
           Z           -0.00001  -0.00002   1.00000
 This molecule is an asymmetric top.
 Rotational symmetry number  1.
 Warning -- assumption of classical behavior for rotation
           may cause significant error
 Rotational temperatures (Kelvin)      0.03067     0.02917     0.01711
 Rotational constants (GHZ):           0.63906     0.60774     0.35644
 Zero-point vibrational energy     805204.9 (Joules/Mol)
                                  192.44858 (Kcal/Mol)
 Warning -- explicit consideration of  24 degrees of freedom as
           vibrations may cause significant error
 Vibrational temperatures:     21.55    98.84   169.72   186.55   234.51
          (Kelvin)            257.22   268.89   305.08   317.61   349.89
                              365.44   379.74   398.66   462.37   468.34
                              553.61   615.40   644.69   675.58   721.58
                              763.72   771.41   782.34   817.98   937.91
                              966.74   982.93  1118.01  1121.80  1133.73
                             1142.14  1228.48  1302.41  1316.91  1350.70
                             1351.37  1432.73  1455.27  1482.20  1499.77
                             1514.25  1517.79  1558.22  1585.84  1594.17
                             1597.12  1683.68  1699.45  1710.75  1722.79
                             1730.22  1759.55  1764.26  1778.49  1789.06
                             1852.77  1883.42  1987.43  2012.11  2038.39
                             2048.21  2051.49  2054.30  2094.65  2095.51
                             2105.97  2109.95  2111.56  2118.68  2119.95
                             2134.41  2137.25  2152.07  2175.07  2227.47
                             2297.46  2363.77  2393.35  2438.21  2478.80
                             2985.94  4374.55  4378.94  4438.34  4443.00
                             4492.25  4493.87  4537.13  4540.48  4582.29
                             4583.56  4585.12  4596.33  4597.31  4599.25
                             4608.98  4617.10  4627.39  4663.98

 Zero-point correction=                           0.306686 (Hartree/Particle)
 Thermal correction to Energy=                    0.321824
 Thermal correction to Enthalpy=                  0.322768
 Thermal correction to Gibbs Free Energy=         0.264660
 Sum of electronic and zero-point Energies=           -653.704672
 Sum of electronic and thermal Energies=              -653.689535
 Sum of electronic and thermal Enthalpies=            -653.688591
 Sum of electronic and thermal Free Energies=         -653.746698

                     E (Thermal)             CV                S
                      KCal/Mol        Cal/Mol-Kelvin    Cal/Mol-Kelvin
 Total                  201.948             59.603            122.298
 Electronic               0.000              0.000              0.000
 Translational            0.889              2.981             42.002
 Rotational               0.889              2.981             32.118
 Vibrational            200.170             53.642             48.178
 Vibration     1          0.593              1.986              7.208
 Vibration     2          0.598              1.969              4.190
 Vibration     3          0.608              1.934              3.134
 Vibration     4          0.612              1.924              2.951
 Vibration     5          0.623              1.888              2.515
 Vibration     6          0.629              1.868              2.341
 Vibration     7          0.632              1.858              2.258
 Vibration     8          0.643              1.823              2.026
 Vibration     9          0.647              1.809              1.953
 Vibration    10          0.659              1.774              1.779
 Vibration    11          0.665              1.756              1.703
 Vibration    12          0.670              1.739              1.636
 Vibration    13          0.678              1.716              1.552
 Vibration    14          0.707              1.633              1.303
 Vibration    15          0.710              1.624              1.282
 Vibration    16          0.754              1.503              1.020
 Vibration    17          0.789              1.410              0.866
 Vibration    18          0.807              1.365              0.802
 Vibration    19          0.827              1.318              0.739
 Vibration    20          0.857              1.247              0.654
 Vibration    21          0.886              1.182              0.585
 Vibration    22          0.891              1.170              0.574
 Vibration    23          0.899              1.153              0.557
 Vibration    24          0.925              1.099              0.507

 Optimization completed.
    -- Stationary point found.
 Normal termination of Gaussian 09 at Sun Dec 15 07:22:31 2024.
