 Gaussian 09, Revision E.01,
 Gaussian 09:  ES64L-G09RevE.01 30-Nov-2015

 ----------------------------
 # opt freq m062x/aug-cc-pvdz
 ----------------------------

 ----------
 [No Title]
 ----------
 Symbolic Z-matrix:
 Charge =  0 Multiplicity = 1

 SCF Done:  E(RM062X) =  -653.614791949     A.U. after   22 cycles
 SCF Done:  E(RM062X) =  -653.614788411     A.U. after   20 cycles
 SCF Done:  E(RM062X) =  -653.614501649     A.U. after   21 cycles
 SCF Done:  E(RM062X) =  -653.614885966     A.U. after   15 cycles
 SCF Done:  E(RM062X) =  -653.614934297     A.U. after   18 cycles
 SCF Done:  E(RM062X) =  -653.614939083     A.U. after   18 cycles
 SCF Done:  E(RM062X) =  -653.614940262     A.U. after   17 cycles
 SCF Done:  E(RM062X) =  -653.614940627     A.U. after   16 cycles
 SCF Done:  E(RM062X) =  -653.614940710     A.U. after   12 cycles
 SCF Done:  E(RM062X) =  -653.614940628     A.U. after   17 cycles
 SCF Done:  E(RM062X) =  -653.614940788     A.U. after   16 cycles
 SCF Done:  E(RM062X) =  -653.614940842     A.U. after   16 cycles
 Optimization completed.
    -- Stationary point found.
 Normal termination of Gaussian 09 at Sun Dec 15 03:02:53 2024.

 ----------------------------------------------------------------------
 #N Geom=AllCheck Guess=TCheck SCRF=Check GenChk RM062X/Aug-CC-pVDZ Fre
 q
 ----------------------------------------------------------------------

 Structure from the checkpoint file:  "pvdzDMAN.chk"
 ----------
 [No Title]
 ----------
 Charge =  0 Multiplicity = 1

                         Standard orientation:
 ---------------------------------------------------------------------
 Center     Atomic      Atomic             Coordinates (Angstroms)
 Number     Number       Type             X           Y           Z
 ---------------------------------------------------------------------
      1          6           0        0.672071    2.431653    0.231643
      2          6           0        2.076474    2.390457    0.371268
      3          6           0        2.746932    1.208992    0.206045
      4          6           0        2.027168    0.000194   -0.000001
      5          6           0        0.598436    0.000055   -0.000002
      6          6           0       -0.069668    1.285620   -0.006775
      7          6           0        2.747167   -1.208465   -0.206044
      8          6           0        2.076938   -2.390061   -0.371265
      9          6           0        0.672543   -2.431529   -0.231640
     10          6           0       -0.069419   -1.285639    0.006774
     11          7           0       -1.450139    1.366640   -0.266984
     12          7           0       -1.449874   -1.366923    0.266981
     13          6           0       -1.880294    0.855947   -1.562593
     14          6           0       -2.119007    2.604124    0.066774
     15          6           0       -2.118506   -2.604540   -0.066760
     16          6           0       -1.880135   -0.856285    1.562577
     17          1           0        0.179030    3.399237    0.253236
     18          1           0        2.621440    3.315940    0.552284
     19          1           0        3.834789    1.169880    0.236826
     20          1           0        3.835016   -1.169142   -0.236823
     21          1           0        2.622085   -3.315438   -0.552278
     22          1           0        0.179691   -3.399209   -0.253232
     23          1           0       -1.265028    0.006992   -1.863270
     24          1           0       -2.924525    0.522848   -1.499863
     25          1           0       -1.800654    1.641139   -2.336687
     26          1           0       -1.888816    2.889096    1.099774
     27          1           0       -1.849665    3.442889   -0.603636
     28          1           0       -3.200434    2.441987   -0.017875
     29          1           0       -1.888258   -2.889483   -1.099755
     30          1           0       -1.849005   -3.443243    0.603663
     31          1           0       -3.199964   -2.442607    0.017884
     32          1           0       -1.265014   -0.007224    1.863252
     33          1           0       -2.924421   -0.523362    1.499827
     34          1           0       -1.800375   -1.641454    2.336682
 ---------------------------------------------------------------------

 SCF Done:  E(RM062X) =  -653.614940844     A.U. after   14 cycles

 The electronic state is 1-A.
 Alpha  occ. eigenvalues --  -14.76172 -14.76172 -10.58708 -10.58707 -10.56917
 Alpha  occ. eigenvalues --  -10.56917 -10.56355 -10.56355 -10.55770 -10.55565
 Alpha  occ. eigenvalues --  -10.54713 -10.54712 -10.54077 -10.54077 -10.54049
 Alpha  occ. eigenvalues --  -10.54045  -1.05943  -1.04144  -0.96344  -0.91272
 Alpha  occ. eigenvalues --   -0.85981  -0.83606  -0.81541  -0.80115  -0.79888
 Alpha  occ. eigenvalues --   -0.73831  -0.73740  -0.69156  -0.67705  -0.63423
 Alpha  occ. eigenvalues --   -0.59189  -0.58193  -0.57255  -0.54934  -0.54371
 Alpha  occ. eigenvalues --   -0.53254  -0.52409  -0.51907  -0.50975  -0.48567
 Alpha  occ. eigenvalues --   -0.47292  -0.46690  -0.45983  -0.45511  -0.45197
 Alpha  occ. eigenvalues --   -0.44321  -0.43998  -0.43064  -0.42885  -0.42639
 Alpha  occ. eigenvalues --   -0.39716  -0.38873  -0.38865  -0.34708  -0.31765
 Alpha  occ. eigenvalues --   -0.29108  -0.25635  -0.23317
 Alpha virt. eigenvalues --   -0.01003  -0.00404   0.00154   0.00325   0.00844
 Alpha virt. eigenvalues --    0.01292   0.01602   0.01652   0.02160   0.02585
 Alpha virt. eigenvalues --    0.03283   0.03453   0.03716   0.04552   0.04614

 Mulliken charges:
               1
     1  C    1.350579
     2  C   -0.197329
     3  C    1.500707
     4  C    0.540634
     5  C    1.152792
     6  C   -0.998099
     7  C    1.500707
     8  C   -0.197375
     9  C    1.350669
    10  C   -0.998175
    11  N   -0.135418
    12  N   -0.135355
    13  C    1.387425
    14  C    1.448316
    15  C    1.448320
    16  C    1.387450
    17  H   -1.288878
    18  H   -0.797250
    19  H   -1.024149
    20  H   -1.024154
    21  H   -0.797250
    22  H   -1.288892
    23  H   -0.417600
    24  H   -0.261290
    25  H   -0.402700
    26  H   -0.243806
    27  H   -0.270016
    28  H   -0.497210
    29  H   -0.243821
    30  H   -0.270023
    31  H   -0.497206
    32  H   -0.417601
    33  H   -0.261286
    34  H   -0.402716
 Sum of Mulliken charges =  -0.00000

 Dipole moment (field-independent basis, Debye):
    X=             -1.6385    Y=             -0.0001    Z=              0.0000  Tot=              1.6385
 Quadrupole moment (field-independent basis, Debye-Ang):
   XX=            -90.5140   YY=            -89.6338   ZZ=           -101.5244
   XY=             -0.0001   XZ=             -0.0001   YZ=              1.6079

  Exact polarizability: 222.615  -0.038 225.537  -0.043   7.050 128.053
 Approx polarizability: 279.272  -0.001 290.918  -0.002  15.554 171.899

                      1                      2                      3
                      A                      A                      A
 Frequencies --     59.1635                77.6514                82.8226
 Red. masses --      3.6587                 1.7297                 2.2271
 Frc consts  --      0.0075                 0.0061                 0.0090
 IR Inten    --      0.3449                 5.3494                 0.3236

                      4                      5                      6
                      A                      A                      A
 Frequencies --    123.2805               132.2400               147.1695
 Red. masses --      2.7255                 3.0475                 2.9719
 Frc consts  --      0.0244                 0.0314                 0.0379
 IR Inten    --      1.1618                 0.0304                 0.3459

                      7                      8                      9
                      A                      A                      A
 Frequencies --    182.6534               219.2488               251.4215
 Red. masses --      1.8546                 2.3829                 1.6010
 Frc consts  --      0.0365                 0.0675                 0.0596
 IR Inten    --      1.1916                 0.0152                 0.5979

                     10                     11                     12
                      A                      A                      A
 Frequencies --    273.3271               311.4627               325.7640
 Red. masses --      1.9890                 2.4111                 2.7631
 Frc consts  --      0.0875                 0.1378                 0.1728
 IR Inten    --      5.1071                 5.2819                 0.8785

                     13                     14                     15
                      A                      A                      A
 Frequencies --    334.7711               341.7832               362.7852
 Red. masses --      1.5934                 1.2054                 2.1237
 Frc consts  --      0.1052                 0.0830                 0.1647
 IR Inten    --      1.1753                 0.1873                 0.5650

                     16                     17                     18
                      A                      A                      A
 Frequencies --    373.8360               395.1854               454.6515
 Red. masses --      3.2761                 2.8773                 2.9436
 Frc consts  --      0.2698                 0.2647                 0.3585
 IR Inten    --      4.0771                 2.9587                 1.3516

                     19                     20                     21
                      A                      A                      A
 Frequencies --    472.1758               480.5815               533.9889
 Red. masses --      4.4915                 3.2314                 3.9660
 Frc consts  --      0.5900                 0.4397                 0.6663
 IR Inten    --      6.2930                 2.0537                 4.3089

                     22                     23                     24
                      A                      A                      A
 Frequencies --    541.8959               545.8779               547.0899
 Red. masses --      3.8897                 3.7080                 5.6096
 Frc consts  --      0.6730                 0.6510                 0.9892
 IR Inten    --      1.2348                 0.5682                 1.8620

                     25                     26                     27
                      A                      A                      A
 Frequencies --    643.0123               663.5414               676.6504
 Red. masses --      3.8159                 3.6878                 2.5316
 Frc consts  --      0.9296                 0.9566                 0.6829
 IR Inten    --      2.7717                 9.2295                 9.1560

                     28                     29                     30
                      A                      A                      A
 Frequencies --    772.4516               774.3650               777.9260
 Red. masses --      1.4462                 1.4572                 4.8899
 Frc consts  --      0.5084                 0.5148                 1.7435
 IR Inten    --     76.6928                 3.7023                 2.8246

                     31                     32                     33
                      A                      A                      A
 Frequencies --    788.9012               850.8834               873.0767
 Red. masses --      4.8907                 4.7176                 1.5083
 Frc consts  --      1.7933                 2.0124                 0.6774
 IR Inten    --      3.7777                19.9504                 0.2908

                     34                     35                     36
                      A                      A                      A
 Frequencies --    894.9861               927.3016               972.0290
 Red. masses --      1.5976                 4.1231                 3.5966
 Frc consts  --      0.7539                 2.0889                 2.0022
 IR Inten    --      3.9305                 0.4649                28.6406

                     37                     38                     39
                      A                      A                      A
 Frequencies --    986.0003               992.6677              1058.1155
 Red. masses --      1.3234                 1.3438                 3.3964
 Frc consts  --      0.7581                 0.7802                 2.2404
 IR Inten    --      0.2556                 0.3891                34.0258

                     40                     41                     42
                      A                      A                      A
 Frequencies --   1061.4540              1085.5535              1085.9660
 Red. masses --      2.2826                 1.3132                 1.3171
 Frc consts  --      1.5153                 0.9118                 0.9152
 IR Inten    --     81.8732                 7.2239                11.1956

                     43                     44                     45
                      A                      A                      A
 Frequencies --   1106.1954              1106.9355              1119.9145
 Red. masses --      1.3023                 1.3714                 1.6045
 Frc consts  --      0.9389                 0.9901                 1.1856
 IR Inten    --     11.4345                 2.7299                 0.0610

                     46                     47                     48
                      A                      A                      A
 Frequencies --   1132.4290              1154.3958              1157.1192
 Red. masses --      1.5448                 1.4559                 1.4526
 Frc consts  --      1.1672                 1.1431                 1.1459
 IR Inten    --      3.6692                 3.1034                40.4423

                     49                     50                     51
                      A                      A                      A
 Frequencies --   1168.1753              1183.0176              1207.2881
 Red. masses --      1.2805                 1.1964                 1.5330
 Frc consts  --      1.0296                 0.9865                 1.3165
 IR Inten    --      1.5841                 2.6605                 4.0781

                     52                     53                     54
                      A                      A                      A
 Frequencies --   1225.0441              1226.2080              1272.4346
 Red. masses --      2.3873                 1.8065                 3.7166
 Frc consts  --      2.1109                 1.6003                 3.5454
 IR Inten    --      9.7819                12.6776                44.6219

                     55                     56                     57
                      A                      A                      A
 Frequencies --   1275.4207              1350.2228              1354.3643
 Red. masses --      4.3836                 1.9893                 3.2797
 Frc consts  --      4.2013                 2.1368                 3.5445
 IR Inten    --      4.3715                14.0707                11.1099

                     58                     59                     60
                      A                      A                      A
 Frequencies --   1395.1628              1406.1029              1421.1753
 Red. masses --      3.6203                 6.3200                 1.4717
 Frc consts  --      4.1518                 7.3621                 1.7513
 IR Inten    --     13.1494                23.2737                26.5534

                     61                     62                     63
                      A                      A                      A
 Frequencies --   1424.2436              1431.3609              1451.3416
 Red. masses --      1.1672                 2.0018                 1.3330
 Frc consts  --      1.3950                 2.4164                 1.6543
 IR Inten    --      0.5250                69.0357                 1.3101

                     64                     65                     66
                      A                      A                      A
 Frequencies --   1451.3925              1458.1834              1459.6720
 Red. masses --      1.3382                 1.1736                 1.0513
 Frc consts  --      1.6609                 1.4702                 1.3197
 IR Inten    --      7.2317                 2.6613                 8.2668

                     67                     68                     69
                      A                      A                      A
 Frequencies --   1467.0868              1474.6823              1475.9468
 Red. masses --      1.5276                 1.0601                 1.0845
 Frc consts  --      1.9372                 1.3583                 1.3920
 IR Inten    --      7.6701                 7.6964                37.0118

                     70                     71                     72
                      A                      A                      A
 Frequencies --   1477.3049              1483.3898              1495.1671
 Red. masses --      1.0948                 1.0632                 1.4110
 Frc consts  --      1.4077                 1.3784                 1.8585
 IR Inten    --     11.5097                 0.0993                 8.6791

                     73                     74                     75
                      A                      A                      A
 Frequencies --   1512.4065              1514.7274              1569.1628
 Red. masses --      1.2388                 1.6148                 4.6812
 Frc consts  --      1.6695                 2.1829                 6.7912
 IR Inten    --     67.8091                42.5737                26.7490

                     76                     77                     78
                      A                      A                      A
 Frequencies --   1654.3378              1675.1843              1693.0121
 Red. masses --      7.1207                 6.2397                 6.9531
 Frc consts  --     11.4821                10.3166                11.7422
 IR Inten    --    233.4965                 0.8391                17.6960

                     79                     80                     81
                      A                      A                      A
 Frequencies --   2972.4964              2972.8103              2998.9250
 Red. masses --      1.0575                 1.0576                 1.0545
 Frc consts  --      5.5051                 5.5067                 5.5876
 IR Inten    --    155.8965                17.2102               190.4424

                     82                     83                     84
                      A                      A                      A
 Frequencies --   3000.0708              3092.7883              3093.9378
 Red. masses --      1.0536                 1.0885                 1.0879
 Frc consts  --      5.5869                 6.1344                 6.1354
 IR Inten    --     43.9537                35.0520                21.6262

                     85                     86                     87
                      A                      A                      A
 Frequencies --   3096.8175              3097.7051              3147.6711
 Red. masses --      1.0757                 1.0762                 1.1031
 Frc consts  --      6.0784                 6.0844                 6.4394
 IR Inten    --     41.4078                33.3287                15.9280

                     88                     89                     90
                      A                      A                      A
 Frequencies --   3147.8311              3185.9974              3187.0576
 Red. masses --      1.1031                 1.0867                 1.0864
 Frc consts  --      6.4403                 6.4990                 6.5017
 IR Inten    --     12.3678                 6.1192                 3.2403

                     91                     92                     93
                      A                      A                      A
 Frequencies --   3197.8570              3198.3729              3203.6791
 Red. masses --      1.0953                 1.0952                 1.0961
 Frc consts  --      6.5993                 6.6012                 6.6280
 IR Inten    --      4.7457                 8.4834                 3.5695

                     94                     95                     96
                      A                      A                      A
 Frequencies --   3205.5007              3217.8536              3218.7644
 Red. masses --      1.0952                 1.0939                 1.0941
 Frc consts  --      6.6305                 6.6736                 6.6784
 IR Inten    --     28.7040                 1.8798                10.2231

 - Thermochemistry -
 -------------------
 Temperature   298.150 Kelvin.  Pressure   1.00000 Atm.
 Atom     1 has atomic number  6 and mass  12.00000

 Molecular mass:   214.14700 amu.
 Principal axes and moments of inertia in atomic units:
                           1         2         3
     Eigenvalues --  2807.806102850.076104994.48740
           X            1.00000  -0.00002   0.00000
           Y            0.00002   1.00000  -0.00201
           Z           -0.00000   0.00201   1.00000
 This molecule is an asymmetric top.
 Rotational symmetry number  1.
 Warning -- assumption of classical behavior for rotation
           may cause significant error
 Rotational temperatures (Kelvin)      0.03085     0.03039     0.01734
 Rotational constants (GHZ):           0.64276     0.63323     0.36135
 Zero-point vibrational energy     772321.4 (Joules/Mol)
                                  184.58924 (Kcal/Mol)
 Warning -- explicit consideration of  24 degrees of freedom as
           vibrations may cause significant error
 Vibrational temperatures:     85.12   111.72   119.16   177.37   190.26
          (Kelvin)            211.74   262.80   315.45   361.74   393.26
                              448.12   468.70   481.66   491.75   521.97
                              537.87   568.58   654.14   679.35   691.45
                              768.29   779.67   785.40   787.14   925.15
                              954.69   973.55  1111.38  1114.14  1119.26
                             1135.05  1224.23  1256.16  1287.68  1334.18
                             1398.53  1418.63  1428.23  1522.39  1527.19
                             1561.87  1562.46  1591.57  1592.63  1611.31
                             1629.31  1660.92  1664.83  1680.74  1702.10
                             1737.02  1762.56  1764.24  1830.75  1835.04
                             1942.67  1948.63  2007.33  2023.07  2044.75
                             2049.17  2059.41  2088.15  2088.23  2098.00
                             2100.14  2110.81  2121.74  2123.56  2125.51
                             2134.26  2151.21  2176.01  2179.35  2257.67
                             2380.22  2410.21  2435.86  4276.75  4277.21
                             4314.78  4316.43  4449.83  4451.48  4455.62
                             4456.90  4528.79  4529.02  4583.93  4585.46
                             4601.00  4601.74  4609.37  4611.99  4629.77
                             4631.08

 Zero-point correction=                           0.294162 (Hartree/Particle)
 Thermal correction to Energy=                    0.309050
 Thermal correction to Enthalpy=                  0.309994
 Thermal correction to Gibbs Free Energy=         0.253318
 Sum of electronic and zero-point Energies=           -653.320779
 Sum of electronic and thermal Energies=              -653.305891
 Sum of electronic and thermal Enthalpies=            -653.304947
 Sum of electronic and thermal Free Energies=         -653.361623

                     E (Thermal)             CV                S
                      KCal/Mol        Cal/Mol-Kelvin    Cal/Mol-Kelvin
 Total                  193.932             59.125            119.284
 Electronic               0.000              0.000              0.000
 Translational            0.889              2.981             41.988
 Rotational               0.889              2.981             32.058
 Vibrational            192.154             53.163             45.238
 Vibration     1          0.597              1.974              4.485
 Vibration     2          0.599              1.964              3.949
 Vibration     3          0.600              1.961              3.823
 Vibration     4          0.610              1.930              3.048
 Vibration     5          0.612              1.921              2.913
 Vibration     6          0.617              1.906              2.709
 Vibration     7          0.630              1.863              2.301
 Vibration     8          0.647              1.812              1.965
 Vibration     9          0.663              1.760              1.721
 Vibration    10          0.676              1.723              1.575
 Vibration    11          0.700              1.652              1.355
 Vibration    12          0.710              1.624              1.281
 Vibration    13          0.716              1.606              1.237
 Vibration    14          0.721              1.592              1.204
 Vibration    15          0.737              1.549              1.110
 Vibration    16          0.745              1.526              1.064
 Vibration    17          0.762              1.480              0.981
 Vibration    18          0.813              1.351              0.782
 Vibration    19          0.829              1.312              0.731
 Vibration    20          0.837              1.293              0.708
 Vibration    21          0.889              1.175              0.578
 Vibration    22          0.897              1.157              0.561
 Vibration    23          0.901              1.149              0.553
 Vibration    24          0.902              1.146              0.550

 Optimization completed.
    -- Stationary point found.
 Normal termination of Gaussian 09 at Sun Dec 15 05:20:06 2024.
