 Gaussian 09, Revision E.01,
 Gaussian 09:  ES64L-G09RevE.01 30-Nov-2015

 -------------------------------------------------------
 # opt freq B2PLYP/6-31+g(d,p) EmpiricalDispersion=GD3BJ
 -------------------------------------------------------

 ----------
 [No Title]
 ----------
 Symbolic Z-matrix:
 Charge =  1 Multiplicity = 1

 SCF Done:  E(RB2PLYP) =  -652.839647851     A.U. after   15 cycles
 E2(B2PLYP) =    -0.7528516037D+00 E(B2PLYP) =    -0.65359249945503D+03
 SCF Done:  E(RB2PLYP) =  -652.839630342     A.U. after   12 cycles
 E2(B2PLYP) =    -0.7529432922D+00 E(B2PLYP) =    -0.65359257363420D+03
 SCF Done:  E(RB2PLYP) =  -652.839654258     A.U. after   12 cycles
 E2(B2PLYP) =    -0.7528676977D+00 E(B2PLYP) =    -0.65359252195562D+03
 SCF Done:  E(RB2PLYP) =  -652.839869754     A.U. after   11 cycles
 E2(B2PLYP) =    -0.7528370798D+00 E(B2PLYP) =    -0.65359270683376D+03
 SCF Done:  E(RB2PLYP) =  -652.839853802     A.U. after   11 cycles
 E2(B2PLYP) =    -0.7527816470D+00 E(B2PLYP) =    -0.65359263544945D+03
 SCF Done:  E(RB2PLYP) =  -652.839999519     A.U. after   10 cycles
 E2(B2PLYP) =    -0.7527263549D+00 E(B2PLYP) =    -0.65359272587369D+03
 SCF Done:  E(RB2PLYP) =  -652.839982257     A.U. after    9 cycles
 E2(B2PLYP) =    -0.7527517681D+00 E(B2PLYP) =    -0.65359273402558D+03
 SCF Done:  E(RB2PLYP) =  -652.840002156     A.U. after    9 cycles
 E2(B2PLYP) =    -0.7527324631D+00 E(B2PLYP) =    -0.65359273461947D+03
 Optimization completed.
    -- Stationary point found.
 Normal termination of Gaussian 09 at Thu Dec 19 01:42:09 2024.

 ----------------------------------------------------------------------
 #N Geom=AllCheck Guess=TCheck SCRF=Check GenChk RB2PLYP(FC)/6-31+G(d,p
 ) Freq
 ----------------------------------------------------------------------

 Structure from the checkpoint file:  "B2PLYPDMAND3bjyang.chk"
 ----------
 [No Title]
 ----------
 Charge =  1 Multiplicity = 1

                         Standard orientation:
 ---------------------------------------------------------------------
 Center     Atomic      Atomic             Coordinates (Angstroms)
 Number     Number       Type             X           Y           Z
 ---------------------------------------------------------------------
      1          6           0        0.764130   -2.436498   -0.000118
      2          6           0        2.175057   -2.389441   -0.000186
      3          6           0        2.817515   -1.171922   -0.000125
      4          6           0        2.087368    0.045931   -0.000022
      5          6           0        0.649552    0.019088    0.000019
      6          6           0        0.034793   -1.269232   -0.000011
      7          6           0        2.765786    1.292647    0.000034
      8          6           0        2.065053    2.477066    0.000113
      9          6           0        0.653111    2.459917    0.000105
     10          6           0       -0.045575    1.270205    0.000050
     11          7           0       -1.439599   -1.331702    0.000143
     12          7           0       -1.505197    1.263096   -0.000047
     13          6           0       -1.997072   -1.949936   -1.238782
     14          6           0       -1.996753   -1.949827    1.239271
     15          6           0       -2.072863    1.874395    1.222385
     16          6           0       -2.072651    1.873908   -1.222826
     17          1           0        0.263186   -3.397467   -0.000134
     18          1           0        2.740750   -3.312122   -0.000277
     19          1           0        3.900233   -1.125756   -0.000161
     20          1           0        3.849416    1.294390    0.000008
     21          1           0        2.588331    3.424850    0.000159
     22          1           0        0.112650    3.399136    0.000126
     23          1           0       -1.702357   -0.250365    0.000152
     24          1           0       -3.080316   -1.836735   -1.226223
     25          1           0       -1.574638   -1.437804   -2.100425
     26          1           0       -1.737057   -3.006266   -1.277024
     27          1           0       -3.080004   -1.836660    1.226971
     28          1           0       -1.574116   -1.437596    2.100755
     29          1           0       -1.736680   -3.006142    1.277544
     30          1           0       -1.636449    1.397244    2.099459
     31          1           0       -1.871416    2.948583    1.271111
     32          1           0       -3.152805    1.720576    1.225080
     33          1           0       -1.636108    1.396378   -2.099631
     34          1           0       -3.152598    1.720124   -1.225637
     35          1           0       -1.871148    2.948066   -1.271962
 ---------------------------------------------------------------------

 SCF Done:  E(RB2PLYP) =  -652.840002156     A.U. after    1 cycles
 E2(B2PLYP) =    -0.7527324627D+00 E(B2PLYP) =    -0.65359273461907D+03
 E2(B2PLYP) =    -0.7527324626D+00 E(B2PLYP) =    -0.65359273461903D+03

 The electronic state is 1-A.
 Alpha  occ. eigenvalues --  -15.08817 -15.01972 -10.81872 -10.81331 -10.81331
 Alpha  occ. eigenvalues --  -10.80370 -10.78882 -10.78318 -10.78317 -10.77822
 Alpha  occ. eigenvalues --  -10.77609 -10.76582 -10.76431 -10.76311 -10.75900
 Alpha  occ. eigenvalues --  -10.75791  -1.27524  -1.21286  -1.13171  -1.07541
 Alpha  occ. eigenvalues --   -1.02621  -0.99592  -0.98988  -0.97095  -0.95502
 Alpha  occ. eigenvalues --   -0.92621  -0.89050  -0.85976  -0.83902  -0.80641
 Alpha  occ. eigenvalues --   -0.76251  -0.74144  -0.73871  -0.71095  -0.70276
 Alpha  occ. eigenvalues --   -0.69659  -0.66953  -0.66527  -0.66410  -0.64274
 Alpha  occ. eigenvalues --   -0.63415  -0.63387  -0.61875  -0.61592  -0.60653
 Alpha  occ. eigenvalues --   -0.60142  -0.59214  -0.58623  -0.58109  -0.57269
 Alpha  occ. eigenvalues --   -0.57206  -0.54449  -0.53639  -0.51096  -0.46246
 Alpha  occ. eigenvalues --   -0.44721  -0.41378  -0.38164
 Alpha virt. eigenvalues --   -0.13252  -0.10007  -0.08883  -0.06800  -0.06650
 Alpha virt. eigenvalues --   -0.06266  -0.05559  -0.05077  -0.04631  -0.04204
 Alpha virt. eigenvalues --   -0.03865  -0.03823  -0.02660  -0.02301  -0.01965

 Mulliken charges:
               1
     1  C   -0.080204
     2  C   -0.207597
     3  C   -0.166619
     4  C   -0.202255
     5  C    0.021769
     6  C   -0.076158
     7  C   -0.199032
     8  C   -0.188906
     9  C   -0.097321
    10  C   -0.063456
    11  N   -0.377509
    12  N   -0.449325
    13  C   -0.132843
    14  C   -0.132896
    15  C   -0.127800
    16  C   -0.127879
    17  H    0.160698
    18  H    0.181030
    19  H    0.178055
    20  H    0.175778
    21  H    0.179358
    22  H    0.161132
    23  H    0.513700
    24  H    0.181368
    25  H    0.183682
    26  H    0.183742
    27  H    0.181368
    28  H    0.183685
    29  H    0.183744
    30  H    0.156241
    31  H    0.163411
    32  H    0.160694
    33  H    0.156226
    34  H    0.160697
    35  H    0.163425
 Sum of Mulliken charges =   1.00000

 Dipole moment (field-independent basis, Debye):
    X=             -4.0197    Y=             -1.7561    Z=              0.0002  Tot=              4.3865
 Quadrupole moment (field-independent basis, Debye-Ang):
   XX=            -63.7693   YY=            -64.9179   ZZ=            -92.7759
   XY=              3.3166   XZ=             -0.0007   YZ=             -0.0001

  Exact polarizability: 193.271  -0.919 210.400  -0.001   0.004 110.106
 Approx polarizability: 225.807  -0.991 267.849  -0.002   0.007 137.661

                      1                      2                      3
                      A                      A                      A
 Frequencies --     24.4696                82.4446               129.1327
 Red. masses --      3.5221                 2.7121                 3.3363
 Frc consts  --      0.0012                 0.0109                 0.0328
 IR Inten    --      0.0835                 0.1535                 0.3743

                      4                      5                      6
                      A                      A                      A
 Frequencies --    139.1123               168.1264               173.4232
 Red. masses --      2.3994                 2.7510                 3.2594
 Frc consts  --      0.0274                 0.0458                 0.0578
 IR Inten    --      0.2538                16.8389                 3.9353

                      7                      8                      9
                      A                      A                      A
 Frequencies --    186.8496               220.9723               228.8914
 Red. masses --      3.5365                 1.1286                 1.4376
 Frc consts  --      0.0727                 0.0325                 0.0444
 IR Inten    --      0.3252                 0.0654                 0.6758

                     10                     11                     12
                      A                      A                      A
 Frequencies --    241.7215               258.5617               261.8368
 Red. masses --      1.0801                 1.6774                 1.4198
 Frc consts  --      0.0372                 0.0661                 0.0573
 IR Inten    --      0.0269                 3.6469                 0.3540

                     13                     14                     15
                      A                      A                      A
 Frequencies --    274.2346               312.3350               320.6249
 Red. masses --      2.0895                 3.4047                 2.7321
 Frc consts  --      0.0926                 0.1957                 0.1655
 IR Inten    --      0.1090                 0.1827                 2.0857

                     16                     17                     18
                      A                      A                      A
 Frequencies --    373.8338               430.5087               447.8447
 Red. masses --      3.7637                 3.1805                 2.9410
 Frc consts  --      0.3099                 0.3473                 0.3475
 IR Inten    --     12.1848                23.5417                 0.4035

                     19                     20                     21
                      A                      A                      A
 Frequencies --    459.1272               503.8583               514.9057
 Red. masses --      3.6366                 5.4422                 3.9391
 Frc consts  --      0.4517                 0.8140                 0.6153
 IR Inten    --      0.3943                19.0004                 0.0297

                     22                     23                     24
                      A                      A                      A
 Frequencies --    530.5941               537.8899               573.0040
 Red. masses --      4.0758                 5.1682                 3.8542
 Frc consts  --      0.6761                 0.8810                 0.7456
 IR Inten    --     15.6480                 1.9519                 3.4337

                     25                     26                     27
                      A                      A                      A
 Frequencies --    606.5394               640.8763               679.8682
 Red. masses --      5.1763                 4.1268                 3.6003
 Frc consts  --      1.1220                 0.9986                 0.9805
 IR Inten    --      0.0207                 0.8848                64.0724

                     28                     29                     30
                      A                      A                      A
 Frequencies --    683.3664               775.5509               778.5024
 Red. masses --      6.6887                 4.8290                 1.2449
 Frc consts  --      1.8404                 1.7113                 0.4445
 IR Inten    --     11.3790                 1.2535                 0.3414

                     31                     32                     33
                      A                      A                      A
 Frequencies --    799.1825               809.5491               887.2457
 Red. masses --      5.3112                 1.2883                 4.0853
 Frc consts  --      1.9986                 0.4975                 1.8948
 IR Inten    --      0.3226                86.0060                44.1702

                     34                     35                     36
                      A                      A                      A
 Frequencies --    906.4307               923.3304               924.3934
 Red. masses --      1.3343                 3.8112                 1.3953
 Frc consts  --      0.6459                 1.9144                 0.7025
 IR Inten    --      0.2772                32.1242                 1.3372

                     37                     38                     39
                      A                      A                      A
 Frequencies --    965.3290               979.0623              1021.7890
 Red. masses --      1.2375                 1.2584                 3.4209
 Frc consts  --      0.6794                 0.7107                 2.1044
 IR Inten    --      0.0155                 0.1300                32.2236

                     40                     41                     42
                      A                      A                      A
 Frequencies --   1028.7028              1050.6282              1050.7156
 Red. masses --      2.1329                 1.8452                 3.9142
 Frc consts  --      1.3298                 1.2000                 2.5460
 IR Inten    --     13.7653                16.0486                14.1543

                     43                     44                     45
                      A                      A                      A
 Frequencies --   1098.4855              1114.4790              1118.4620
 Red. masses --      1.2009                 2.1150                 1.8698
 Frc consts  --      0.8538                 1.5478                 1.3782
 IR Inten    --      0.4979                 9.4177                 1.3571

                     46                     47                     48
                      A                      A                      A
 Frequencies --   1124.1079              1193.3440              1195.2847
 Red. masses --      1.2400                 1.2975                 2.0853
 Frc consts  --      0.9232                 1.0887                 1.7554
 IR Inten    --      1.6489                 4.2578                 5.6805

                     49                     50                     51
                      A                      A                      A
 Frequencies --   1197.8376              1212.3414              1212.7981
 Red. masses --      1.4039                 2.6916                 1.4332
 Frc consts  --      1.1868                 2.3309                 1.2420
 IR Inten    --      2.8644                10.4381                 4.6632

                     52                     53                     54
                      A                      A                      A
 Frequencies --   1220.9077              1237.2131              1251.1627
 Red. masses --      1.3114                 1.5897                 1.7133
 Frc consts  --      1.1517                 1.4337                 1.5802
 IR Inten    --     10.4791                30.6996                53.6014

                     55                     56                     57
                      A                      A                      A
 Frequencies --   1262.6271              1293.0935              1315.0121
 Red. masses --      2.0199                 2.2963                 2.4649
 Frc consts  --      1.8972                 2.2622                 2.5113
 IR Inten    --      5.0693                 2.0507                20.7074

                     58                     59                     60
                      A                      A                      A
 Frequencies --   1394.1292              1409.7014              1417.8815
 Red. masses --      2.2591                 4.1610                 5.5369
 Frc consts  --      2.5869                 4.8719                 6.5584
 IR Inten    --    102.8156                16.5094                 2.7158

                     61                     62                     63
                      A                      A                      A
 Frequencies --   1456.9473              1460.8922              1465.3916
 Red. masses --      1.3931                 1.1422                 1.1413
 Frc consts  --      1.7423                 1.4362                 1.4439
 IR Inten    --     94.9323                 0.7273                 5.8275

                     64                     65                     66
                      A                      A                      A
 Frequencies --   1484.6195              1495.8545              1500.9326
 Red. masses --      1.6615                 1.2056                 1.0446
 Frc consts  --      2.1576                 1.5894                 1.3865
 IR Inten    --      0.8167                 0.9689                 0.0808

                     67                     68                     69
                      A                      A                      A
 Frequencies --   1506.5951              1509.1355              1515.3350
 Red. masses --      1.9064                 1.0509                 1.0449
 Frc consts  --      2.5495                 1.4101                 1.4136
 IR Inten    --      2.5049                 2.1627                 4.2044

                     70                     71                     72
                      A                      A                      A
 Frequencies --   1519.8961              1524.4391              1527.8765
 Red. masses --      1.2255                 1.0461                 1.0551
 Frc consts  --      1.6680                 1.4323                 1.4512
 IR Inten    --      6.1756                12.1673                 4.2641

                     73                     74                     75
                      A                      A                      A
 Frequencies --   1532.1950              1541.6073              1550.1530
 Red. masses --      1.0796                 1.0587                 2.6612
 Frc consts  --      1.4932                 1.4825                 3.7677
 IR Inten    --      4.9064                24.4032               129.2813

                     76                     77                     78
                      A                      A                      A
 Frequencies --   1605.7506              1631.9757              1667.7768
 Red. masses --      1.7457                 5.8449                 3.7047
 Frc consts  --      2.6520                 9.1718                 6.0713
 IR Inten    --    281.0262                13.1069                73.0758

                     79                     80                     81
                      A                      A                      A
 Frequencies --   1684.2043              1688.3335              2082.6566
 Red. masses --      1.0853                 5.3281                 1.1183
 Frc consts  --      1.8139                 8.9482                 2.8578
 IR Inten    --      3.6991                84.5687              1122.4379

                     82                     83                     84
                      A                      A                      A
 Frequencies --   3070.3093              3073.4750              3107.9341
 Red. masses --      1.0347                 1.0360                 1.0306
 Frc consts  --      5.7470                 5.7658                 5.8654
 IR Inten    --     20.4141                21.9350                 5.6234

                     85                     86                     87
                      A                      A                      A
 Frequencies --   3111.1782              3153.6962              3153.8331
 Red. masses --      1.0314                 1.1004                 1.1019
 Frc consts  --      5.8822                 6.4484                 6.4577
 IR Inten    --      6.2632                22.2169                 1.3893

                     88                     89                     90
                      A                      A                      A
 Frequencies --   3185.0310              3186.9531              3206.3186
 Red. masses --      1.1057                 1.1060                 1.1079
 Frc consts  --      6.6084                 6.6188                 6.7105
 IR Inten    --      4.4304                19.4334                 0.0260

                     91                     92                     93
                      A                      A                      A
 Frequencies --   3208.1047              3218.2733              3218.9498
 Red. masses --      1.1070                 1.1073                 1.1075
 Frc consts  --      6.7128                 6.7574                 6.7614
 IR Inten    --      7.0148                 0.8343                 3.0359

                     94                     95                     96
                      A                      A                      A
 Frequencies --   3228.8311              3229.3124              3233.2417
 Red. masses --      1.0888                 1.0894                 1.0918
 Frc consts  --      6.6881                 6.6938                 6.7249
 IR Inten    --      0.7268                 3.5641                 0.2490

                     97                     98                     99
                      A                      A                      A
 Frequencies --   3235.3050              3252.6488              3255.6466
 Red. masses --      1.0913                 1.0974                 1.0970
 Frc consts  --      6.7302                 6.8405                 6.8509
 IR Inten    --      4.6608                 2.0302                 1.0579

 - Thermochemistry -
 -------------------
 Temperature   298.150 Kelvin.  Pressure   1.00000 Atm.
 Atom     1 has atomic number  6 and mass  12.00000

 Molecular mass:   215.15482 amu.
 Principal axes and moments of inertia in atomic units:
                           1         2         3
     Eigenvalues --  2831.356682987.260585082.23152
           X            0.99999   0.00344   0.00001
           Y           -0.00344   0.99999  -0.00000
           Z           -0.00001   0.00000   1.00000
 This molecule is an asymmetric top.
 Rotational symmetry number  1.
 Warning -- assumption of classical behavior for rotation
           may cause significant error
 Rotational temperatures (Kelvin)      0.03059     0.02899     0.01704
 Rotational constants (GHZ):           0.63741     0.60415     0.35511
 Zero-point vibrational energy     810205.9 (Joules/Mol)
                                  193.64385 (Kcal/Mol)
 Warning -- explicit consideration of  25 degrees of freedom as
           vibrations may cause significant error
 Vibrational temperatures:     35.21   118.62   185.79   200.15   241.90
          (Kelvin)            249.52   268.83   317.93   329.32   347.78
                              372.01   376.72   394.56   449.38   461.31
                              537.86   619.41   644.35   660.58   724.94
                              740.83   763.41   773.90   824.42   872.67
                              922.08   978.18   983.21  1115.84  1120.09
                             1149.84  1164.76  1276.55  1304.15  1328.46
                             1329.99  1388.89  1408.65  1470.12  1480.07
                             1511.62  1511.74  1580.47  1603.48  1609.22
                             1617.34  1716.95  1719.75  1723.42  1744.29
                             1744.94  1756.61  1780.07  1800.14  1816.64
                             1860.47  1892.01  2005.84  2028.24  2040.01
                             2096.22  2101.90  2108.37  2136.03  2152.20
                             2159.50  2167.65  2171.31  2180.23  2186.79
                             2193.33  2198.27  2204.48  2218.03  2230.32
                             2310.31  2348.05  2399.56  2423.19  2429.13
                             2996.47  4417.48  4422.04  4471.62  4476.29
                             4537.46  4537.66  4582.54  4585.31  4613.17
                             4615.74  4630.37  4631.35  4645.56  4646.25
                             4651.91  4654.88  4679.83  4684.14

 Zero-point correction=                           0.308591 (Hartree/Particle)
 Thermal correction to Energy=                    0.323754
 Thermal correction to Enthalpy=                  0.324698
 Thermal correction to Gibbs Free Energy=         0.267217
 Sum of electronic and zero-point Energies=           -653.284144
 Sum of electronic and thermal Energies=              -653.268981
 Sum of electronic and thermal Enthalpies=            -653.268037
 Sum of electronic and thermal Free Energies=         -653.325517

                     E (Thermal)             CV                S
                      KCal/Mol        Cal/Mol-Kelvin    Cal/Mol-Kelvin
 Total                  203.159             59.985            120.979
 Electronic               0.000              0.000              0.000
 Translational            0.889              2.981             42.002
 Rotational               0.889              2.981             32.130
 Vibrational            201.381             54.023             46.846
 Vibration     1          0.593              1.985              6.234
 Vibration     2          0.600              1.961              3.832
 Vibration     3          0.612              1.924              2.959
 Vibration     4          0.615              1.914              2.816
 Vibration     5          0.625              1.882              2.456
 Vibration     6          0.627              1.875              2.398
 Vibration     7          0.632              1.858              2.259
 Vibration     8          0.648              1.809              1.951
 Vibration     9          0.652              1.797              1.888
 Vibration    10          0.658              1.776              1.790
 Vibration    11          0.667              1.748              1.671
 Vibration    12          0.669              1.743              1.649
 Vibration    13          0.677              1.721              1.569
 Vibration    14          0.701              1.650              1.350
 Vibration    15          0.706              1.634              1.307
 Vibration    16          0.745              1.526              1.064
 Vibration    17          0.792              1.404              0.857
 Vibration    18          0.807              1.366              0.802
 Vibration    19          0.817              1.341              0.769
 Vibration    20          0.859              1.241              0.649
 Vibration    21          0.870              1.217              0.622
 Vibration    22          0.886              1.182              0.586
 Vibration    23          0.893              1.166              0.570
 Vibration    24          0.929              1.090              0.498
 Vibration    25          0.965              1.018              0.439

 Optimization completed.
    -- Stationary point found.
 Normal termination of Gaussian 09 at Thu Dec 19 03:50:18 2024.
