 Gaussian 09, Revision E.01,
 Gaussian 09:  ES64L-G09RevE.01 30-Nov-2015

 -------------------------------------------------------
 # opt freq B2PLYP/6-31+g(d,p) EmpiricalDispersion=GD3BJ
 -------------------------------------------------------

 ----------
 [No Title]
 ----------
 Symbolic Z-matrix:
 Charge =  0 Multiplicity = 1

 SCF Done:  E(RB2PLYP) =  -652.430780530     A.U. after   16 cycles
 E2(B2PLYP) =    -0.7545814732D+00 E(B2PLYP) =    -0.65318536200321D+03
 SCF Done:  E(RB2PLYP) =  -652.428854557     A.U. after   14 cycles
 E2(B2PLYP) =    -0.7554092693D+00 E(B2PLYP) =    -0.65318426382671D+03
 SCF Done:  E(RB2PLYP) =  -652.430771113     A.U. after   13 cycles
 E2(B2PLYP) =    -0.7547524093D+00 E(B2PLYP) =    -0.65318552352252D+03
 SCF Done:  E(RB2PLYP) =  -652.430927237     A.U. after   12 cycles
 E2(B2PLYP) =    -0.7547712691D+00 E(B2PLYP) =    -0.65318569850566D+03
 SCF Done:  E(RB2PLYP) =  -652.430910021     A.U. after   11 cycles
 E2(B2PLYP) =    -0.7547956788D+00 E(B2PLYP) =    -0.65318570569947D+03
 SCF Done:  E(RB2PLYP) =  -652.430896611     A.U. after   10 cycles
 E2(B2PLYP) =    -0.7548106146D+00 E(B2PLYP) =    -0.65318570722506D+03
 SCF Done:  E(RB2PLYP) =  -652.430889438     A.U. after    9 cycles
 E2(B2PLYP) =    -0.7548179393D+00 E(B2PLYP) =    -0.65318570737762D+03
 SCF Done:  E(RB2PLYP) =  -652.430890543     A.U. after    9 cycles
 E2(B2PLYP) =    -0.7548170324D+00 E(B2PLYP) =    -0.65318570757512D+03
 SCF Done:  E(RB2PLYP) =  -652.430892336     A.U. after    9 cycles
 E2(B2PLYP) =    -0.7548153336D+00 E(B2PLYP) =    -0.65318570766934D+03
 Optimization completed.
    -- Stationary point found.
 Normal termination of Gaussian 09 at Wed Dec 18 03:04:48 2024.

 ----------------------------------------------------------------------
 #N Geom=AllCheck Guess=TCheck SCRF=Check GenChk RB2PLYP(FC)/6-31+G(d,p
 ) Freq
 ----------------------------------------------------------------------

 Structure from the checkpoint file:  "B2PLYPD3BJDMAN.chk"
 ----------
 [No Title]
 ----------
 Charge =  0 Multiplicity = 1

                         Standard orientation:
 ---------------------------------------------------------------------
 Center     Atomic      Atomic             Coordinates (Angstroms)
 Number     Number       Type             X           Y           Z
 ---------------------------------------------------------------------
      1          6           0        0.685451   -2.434687   -0.226506
      2          6           0        2.088259   -2.390228   -0.365030
      3          6           0        2.756594   -1.200345   -0.205985
      4          6           0        2.034930    0.006231   -0.000069
      5          6           0        0.596979    0.001783   -0.000144
      6          6           0       -0.064603   -1.286547    0.008449
      7          6           0        2.749099    1.217232    0.205991
      8          6           0        2.073401    2.402925    0.365179
      9          6           0        0.670354    2.438727    0.226629
     10          6           0       -0.072569    1.286008   -0.008598
     11          7           0       -1.449961   -1.373409    0.261811
     12          7           0       -1.458437    1.364365   -0.261948
     13          6           0       -1.878561   -0.891571    1.573413
     14          6           0       -2.120393   -2.609356   -0.096052
     15          6           0       -2.136549    2.595921    0.096578
     16          6           0       -1.883984    0.880713   -1.573880
     17          1           0        0.197167   -3.399225   -0.237366
     18          1           0        2.634445   -3.310273   -0.539751
     19          1           0        3.839699   -1.159783   -0.236588
     20          1           0        3.832431    1.183368    0.236688
     21          1           0        2.613872    3.326306    0.540073
     22          1           0        0.176121    3.400229    0.237639
     23          1           0       -1.308309   -0.013484    1.859616
     24          1           0       -2.935216   -0.616829    1.534373
     25          1           0       -1.741064   -1.668655    2.342354
     26          1           0       -1.879547   -2.882571   -1.124224
     27          1           0       -1.866615   -3.456268    0.563256
     28          1           0       -3.197789   -2.445792   -0.025088
     29          1           0       -1.897477    2.870030    1.124925
     30          1           0       -1.887984    3.444769   -0.562225
     31          1           0       -3.212903    2.425714    0.025443
     32          1           0       -1.308216    0.006446   -1.860699
     33          1           0       -2.938889    0.599297   -1.535036
     34          1           0       -1.751385    1.659182   -2.342281
 ---------------------------------------------------------------------

 SCF Done:  E(RB2PLYP) =  -652.430892336     A.U. after    2 cycles
 E2(B2PLYP) =    -0.7548153344D+00 E(B2PLYP) =    -0.65318570767020D+03
 E2(B2PLYP) =    -0.7548153344D+00 E(B2PLYP) =    -0.65318570767019D+03

 The electronic state is 1-A.
 Alpha  occ. eigenvalues --  -14.85185 -14.85185 -10.66783 -10.66783 -10.64550
 Alpha  occ. eigenvalues --  -10.64549 -10.63861 -10.63860 -10.63765 -10.63693
 Alpha  occ. eigenvalues --  -10.62798 -10.62798 -10.62064 -10.62061 -10.62025
 Alpha  occ. eigenvalues --  -10.62025  -1.07691  -1.05845  -0.98273  -0.93111
 Alpha  occ. eigenvalues --   -0.87654  -0.85316  -0.82945  -0.81311  -0.81102
 Alpha  occ. eigenvalues --   -0.75134  -0.74808  -0.70412  -0.68826  -0.64236
 Alpha  occ. eigenvalues --   -0.59649  -0.58797  -0.57773  -0.55167  -0.54360
 Alpha  occ. eigenvalues --   -0.53273  -0.52593  -0.52166  -0.51113  -0.48888
 Alpha  occ. eigenvalues --   -0.47752  -0.47260  -0.45965  -0.45685  -0.45181
 Alpha  occ. eigenvalues --   -0.44346  -0.43873  -0.43313  -0.43071  -0.43057
 Alpha  occ. eigenvalues --   -0.40165  -0.39648  -0.37681  -0.33526  -0.30962
 Alpha  occ. eigenvalues --   -0.27433  -0.24839  -0.21916
 Alpha virt. eigenvalues --    0.01347   0.03104   0.03438   0.03846   0.04312
 Alpha virt. eigenvalues --    0.04955   0.05549   0.05668   0.06512   0.07314
 Alpha virt. eigenvalues --    0.07769   0.07924   0.07948   0.08314   0.08951

 Mulliken charges:
               1
     1  C   -0.313150
     2  C   -0.215350
     3  C   -0.355486
     4  C    0.175702
     5  C    0.060599
     6  C   -0.044697
     7  C   -0.355510
     8  C   -0.215166
     9  C   -0.312849
    10  C   -0.044836
    11  N   -0.032192
    12  N   -0.032240
    13  C   -0.161503
    14  C   -0.207637
    15  C   -0.207641
    16  C   -0.161480
    17  H    0.134803
    18  H    0.140855
    19  H    0.139552
    20  H    0.139555
    21  H    0.140854
    22  H    0.134804
    23  H    0.147365
    24  H    0.127207
    25  H    0.119593
    26  H    0.142407
    27  H    0.126928
    28  H    0.132985
    29  H    0.142413
    30  H    0.126918
    31  H    0.132990
    32  H    0.147382
    33  H    0.127227
    34  H    0.119598
 Sum of Mulliken charges =  -0.00000

 Dipole moment (field-independent basis, Debye):
    X=             -1.4955    Y=             -0.0041    Z=              0.0002  Tot=              1.4955
 Quadrupole moment (field-independent basis, Debye-Ang):
   XX=            -90.9731   YY=            -90.0080   ZZ=           -102.2244
   XY=             -0.0034   XZ=             -0.0048   YZ=              1.7152

  Exact polarizability: 218.290  -0.019 223.650  -0.021   6.481 123.512
 Approx polarizability: 251.797  -0.060 270.435  -0.044  14.691 152.808

                      1                      2                      3
                      A                      A                      A
 Frequencies --     54.0553               101.4735               117.5372
 Red. masses --      3.7790                 2.4229                 1.8534
 Frc consts  --      0.0065                 0.0147                 0.0151
 IR Inten    --      0.4811                 0.3535                 3.9065

                      4                      5                      6
                      A                      A                      A
 Frequencies --    126.3724               128.9751               150.0169
 Red. masses --      3.1373                 3.0142                 3.0828
 Frc consts  --      0.0295                 0.0295                 0.0409
 IR Inten    --      1.1313                 0.4029                 0.9290

                      7                      8                      9
                      A                      A                      A
 Frequencies --    178.5982               212.5161               250.0475
 Red. masses --      1.6099                 2.5450                 1.4628
 Frc consts  --      0.0303                 0.0677                 0.0539
 IR Inten    --      0.7050                 0.0019                 0.8428

                     10                     11                     12
                      A                      A                      A
 Frequencies --    272.5959               305.4017               318.6156
 Red. masses --      1.8352                 1.7923                 1.4445
 Frc consts  --      0.0803                 0.0985                 0.0864
 IR Inten    --      4.3818                 3.9840                 1.0498

                     13                     14                     15
                      A                      A                      A
 Frequencies --    320.1573               331.4412               357.7461
 Red. masses --      1.7168                 2.1165                 2.7891
 Frc consts  --      0.1037                 0.1370                 0.2103
 IR Inten    --      2.0061                 0.1936                 1.5553

                     16                     17                     18
                      A                      A                      A
 Frequencies --    365.7067               390.6765               449.5001
 Red. masses --      3.4970                 2.7911                 2.9484
 Frc consts  --      0.2756                 0.2510                 0.3510
 IR Inten    --      4.6305                 3.1125                 0.7502

                     19                     20                     21
                      A                      A                      A
 Frequencies --    467.0764               479.4169               519.8139
 Red. masses --      3.7518                 4.6129                 4.1197
 Frc consts  --      0.4822                 0.6247                 0.6559
 IR Inten    --      2.3988                 5.3795                 2.1076

                     22                     23                     24
                      A                      A                      A
 Frequencies --    535.8111               543.6070               550.1738
 Red. masses --      4.1144                 4.1081                 5.7945
 Frc consts  --      0.6959                 0.7153                 1.0334
 IR Inten    --      5.4351                 0.0265                 2.4014

                     25                     26                     27
                      A                      A                      A
 Frequencies --    618.0494               637.6235               654.1997
 Red. masses --      5.3520                 3.9599                 4.3014
 Frc consts  --      1.2045                 0.9486                 1.0846
 IR Inten    --      4.8401                 1.0908                 7.4802

                     28                     29                     30
                      A                      A                      A
 Frequencies --    686.6056               756.6978               776.1591
 Red. masses --      6.7616                 1.2725                 5.2534
 Frc consts  --      1.8781                 0.4293                 1.8646
 IR Inten    --      4.1920                 0.5031                 0.2730

                     31                     32                     33
                      A                      A                      A
 Frequencies --    786.2977               796.8518               856.6151
 Red. masses --      1.2828                 5.2817                 1.3741
 Frc consts  --      0.4673                 1.9760                 0.5941
 IR Inten    --    116.2549                 2.7612                 0.6408

                     34                     35                     36
                      A                      A                      A
 Frequencies --    870.3317               910.8841               938.6637
 Red. masses --      1.4356                 4.4101                 1.2181
 Frc consts  --      0.6407                 2.1559                 0.6323
 IR Inten    --      2.1535                 2.0712                 0.5657

                     37                     38                     39
                      A                      A                      A
 Frequencies --    950.1026               960.3809              1057.6425
 Red. masses --      1.2405                 3.6960                 2.6596
 Frc consts  --      0.6597                 2.0085                 1.7529
 IR Inten    --      0.0889                35.9483                82.2349

                     40                     41                     42
                      A                      A                      A
 Frequencies --   1063.0599              1090.5638              1090.6122
 Red. masses --      4.2782                 1.4403                 1.4518
 Frc consts  --      2.8485                 1.0093                 1.0174
 IR Inten    --     26.9944                 7.8299                18.3977

                     43                     44                     45
                      A                      A                      A
 Frequencies --   1125.6948              1125.8060              1136.0254
 Red. masses --      1.5339                 1.3374                 1.5285
 Frc consts  --      1.1452                 0.9987                 1.1622
 IR Inten    --      5.5264                11.5987                 0.2549

                     46                     47                     48
                      A                      A                      A
 Frequencies --   1144.0026              1175.9366              1179.4155
 Red. masses --      1.6632                 1.4484                 1.4349
 Frc consts  --      1.2825                 1.1800                 1.1760
 IR Inten    --      3.7882                 2.0812                48.5373

                     49                     50                     51
                      A                      A                      A
 Frequencies --   1193.3027              1200.9595              1230.5652
 Red. masses --      1.2910                 1.2712                 2.1662
 Frc consts  --      1.0831                 1.0802                 1.9327
 IR Inten    --      0.9236                 3.6331                27.3531

                     52                     53                     54
                      A                      A                      A
 Frequencies --   1238.3908              1242.7947              1260.9017
 Red. masses --      2.0295                 1.9303                 3.1415
 Frc consts  --      1.8338                 1.7566                 2.9427
 IR Inten    --      8.2736                 9.1712                13.6332

                     55                     56                     57
                      A                      A                      A
 Frequencies --   1265.2315              1363.0106              1370.2339
 Red. masses --      2.4352                 3.2819                 2.0136
 Frc consts  --      2.2968                 3.5923                 2.2274
 IR Inten    --     19.1110                21.0152                43.7884

                     58                     59                     60
                      A                      A                      A
 Frequencies --   1398.3208              1401.0093              1428.4033
 Red. masses --      7.2711                 3.9548                 3.4556
 Frc consts  --      8.3765                 4.5736                 4.1541
 IR Inten    --     23.1938                14.1460                75.6269

                     61                     62                     63
                      A                      A                      A
 Frequencies --   1463.5746              1464.5093              1473.7517
 Red. masses --      1.1604                 1.1651                 1.7890
 Frc consts  --      1.4645                 1.4723                 2.2894
 IR Inten    --      0.0418                 1.5084                26.7763

                     64                     65                     66
                      A                      A                      A
 Frequencies --   1484.6243              1493.7108              1498.7601
 Red. masses --      1.4462                 1.2436                 1.0706
 Frc consts  --      1.8781                 1.6348                 1.4170
 IR Inten    --      4.8429                 0.7068                 0.4744

                     67                     68                     69
                      A                      A                      A
 Frequencies --   1501.2730              1507.3687              1515.1540
 Red. masses --      1.1278                 1.2522                 1.1242
 Frc consts  --      1.4976                 1.6763                 1.5205
 IR Inten    --      2.8058                11.6313                18.9412

                     70                     71                     72
                      A                      A                      A
 Frequencies --   1515.3289              1523.8303              1523.8735
 Red. masses --      1.0546                 1.0623                 1.2050
 Frc consts  --      1.4267                 1.4534                 1.6486
 IR Inten    --     26.7700                 3.1184                12.9389

                     73                     74                     75
                      A                      A                      A
 Frequencies --   1544.1433              1547.3113              1563.9741
 Red. masses --      1.0852                 1.0903                 3.6413
 Frc consts  --      1.5245                 1.5379                 5.2476
 IR Inten    --      8.7369                23.3263                26.9064

                     76                     77                     78
                      A                      A                      A
 Frequencies --   1630.3545              1646.7723              1663.6309
 Red. masses --      5.5671                 5.2554                 5.9364
 Frc consts  --      8.7185                 8.3970                 9.6802
 IR Inten    --    192.9373                 0.0953                 9.6319

                     79                     80                     81
                      A                      A                      A
 Frequencies --   2979.0575              2979.4615              2992.6167
 Red. masses --      1.0576                 1.0575                 1.0580
 Frc consts  --      5.5299                 5.5310                 5.5828
 IR Inten    --    168.3782                15.1465               262.4618

                     82                     83                     84
                      A                      A                      A
 Frequencies --   2994.3077              3107.7858              3107.9258
 Red. masses --      1.0577                 1.0745                 1.0748
 Frc consts  --      5.5873                 6.1145                 6.1167
 IR Inten    --     44.8360                22.2256                41.5131

                     85                     86                     87
                      A                      A                      A
 Frequencies --   3114.7282              3115.0549              3162.2050
 Red. masses --      1.0827                 1.0828                 1.1035
 Frc consts  --      6.1888                 6.1906                 6.5014
 IR Inten    --     66.9957                18.0221                19.1143

                     88                     89                     90
                      A                      A                      A
 Frequencies --   3162.2208              3208.9199              3210.9660
 Red. masses --      1.1034                 1.0864                 1.0862
 Frc consts  --      6.5011                 6.5908                 6.5984
 IR Inten    --     22.1886                 4.0292                 0.0160

                     91                     92                     93
                      A                      A                      A
 Frequencies --   3215.6738              3215.9864              3226.9272
 Red. masses --      1.0960                 1.0958                 1.0955
 Frc consts  --      6.6772                 6.6772                 6.7214
 IR Inten    --      6.7121                11.8374                12.9407

                     94                     95                     96
                      A                      A                      A
 Frequencies --   3229.0194              3255.1663              3255.2301
 Red. masses --      1.0950                 1.0915                 1.0913
 Frc consts  --      6.7268                 6.8141                 6.8134
 IR Inten    --     46.1239                19.9455                 1.5556

 - Thermochemistry -
 -------------------
 Temperature   298.150 Kelvin.  Pressure   1.00000 Atm.
 Atom     1 has atomic number  6 and mass  12.00000

 Molecular mass:   214.14700 amu.
 Principal axes and moments of inertia in atomic units:
                           1         2         3
     Eigenvalues --  2821.329072865.695265017.03182
           X            1.00000  -0.00064   0.00001
           Y            0.00064   1.00000  -0.00203
           Z           -0.00000   0.00203   1.00000
 This molecule is an asymmetric top.
 Rotational symmetry number  1.
 Warning -- assumption of classical behavior for rotation
           may cause significant error
 Rotational temperatures (Kelvin)      0.03070     0.03022     0.01726
 Rotational constants (GHZ):           0.63968     0.62977     0.35972
 Zero-point vibrational energy     775203.3 (Joules/Mol)
                                  185.27804 (Kcal/Mol)
 Warning -- explicit consideration of  25 degrees of freedom as
           vibrations may cause significant error
 Vibrational temperatures:     77.77   146.00   169.11   181.82   185.57
          (Kelvin)            215.84   256.96   305.76   359.76   392.20
                              439.40   458.42   460.63   476.87   514.72
                              526.17   562.10   646.73   672.02   689.77
                              747.90   770.91   782.13   791.58   889.23
                              917.40   941.25   987.87  1088.72  1116.72
                             1131.31  1146.49  1232.48  1252.21  1310.56
                             1350.53  1366.98  1381.77  1521.71  1529.50
                             1569.08  1569.15  1619.62  1619.78  1634.49
                             1645.96  1691.91  1696.91  1716.89  1727.91
                             1770.51  1781.77  1788.10  1814.15  1820.38
                             1961.07  1971.46  2011.87  2015.74  2055.15
                             2105.75  2107.10  2120.40  2136.04  2149.11
                             2156.38  2159.99  2168.76  2179.97  2180.22
                             2192.45  2192.51  2221.68  2226.23  2250.21
                             2345.71  2369.34  2393.59  4286.19  4286.78
                             4305.70  4308.14  4471.41  4471.61  4481.39
                             4481.86  4549.70  4549.72  4616.91  4619.86
                             4626.63  4627.08  4642.82  4645.83  4683.45
                             4683.54

 Zero-point correction=                           0.295259 (Hartree/Particle)
 Thermal correction to Energy=                    0.310236
 Thermal correction to Enthalpy=                  0.311180
 Thermal correction to Gibbs Free Energy=         0.254660
 Sum of electronic and zero-point Energies=           -652.890448
 Sum of electronic and thermal Energies=              -652.875472
 Sum of electronic and thermal Enthalpies=            -652.874528
 Sum of electronic and thermal Free Energies=         -652.931047

                     E (Thermal)             CV                S
                      KCal/Mol        Cal/Mol-Kelvin    Cal/Mol-Kelvin
 Total                  194.676             59.637            118.955
 Electronic               0.000              0.000              0.000
 Translational            0.889              2.981             41.988
 Rotational               0.889              2.981             32.073
 Vibrational            192.898             53.675             44.895
 Vibration     1          0.596              1.976              4.663
 Vibration     2          0.604              1.948              3.426
 Vibration     3          0.608              1.935              3.140
 Vibration     4          0.611              1.927              3.001
 Vibration     5          0.611              1.924              2.961
 Vibration     6          0.618              1.903              2.672
 Vibration     7          0.629              1.869              2.343
 Vibration     8          0.644              1.822              2.022
 Vibration     9          0.663              1.763              1.730
 Vibration    10          0.676              1.724              1.580
 Vibration    11          0.696              1.663              1.387
 Vibration    12          0.705              1.638              1.317
 Vibration    13          0.706              1.635              1.309
 Vibration    14          0.714              1.613              1.253
 Vibration    15          0.733              1.559              1.132
 Vibration    16          0.739              1.543              1.098
 Vibration    17          0.758              1.490              0.998
 Vibration    18          0.808              1.362              0.797
 Vibration    19          0.824              1.323              0.746
 Vibration    20          0.836              1.296              0.712
 Vibration    21          0.875              1.206              0.610
 Vibration    22          0.891              1.171              0.574
 Vibration    23          0.899              1.154              0.558
 Vibration    24          0.905              1.139              0.544
 Vibration    25          0.978              0.994              0.420

 Normal termination of Gaussian 09 at Wed Dec 18 05:30:40 2024.
