 Gaussian 09, Revision E.01,
 Gaussian 09:  ES64L-G09RevE.01 30-Nov-2015

 -------------------------------------
 # opt freq b3lyp/6-31+g(d,p) em=gd3bj
 -------------------------------------

 ----------
 [No Title]
 ----------
 Symbolic Z-matrix:
 Charge =  0 Multiplicity = 1

 SCF Done:  E(RB3LYP) =  -653.824027417     A.U. after   16 cycles
 SCF Done:  E(RB3LYP) =  -653.893347258     A.U. after   13 cycles
 SCF Done:  E(RB3LYP) =  -653.897936225     A.U. after   15 cycles
 SCF Done:  E(RB3LYP) =  -653.900841129     A.U. after   16 cycles
 SCF Done:  E(RB3LYP) =  -653.917058237     A.U. after   15 cycles
 SCF Done:  E(RB3LYP) =  -653.920257219     A.U. after   14 cycles
 SCF Done:  E(RB3LYP) =  -653.922494936     A.U. after   13 cycles
 SCF Done:  E(RB3LYP) =  -653.924966809     A.U. after   14 cycles
 SCF Done:  E(RB3LYP) =  -653.926387100     A.U. after   15 cycles
 SCF Done:  E(RB3LYP) =  -653.926925580     A.U. after   14 cycles
 SCF Done:  E(RB3LYP) =  -653.926988227     A.U. after   11 cycles
 SCF Done:  E(RB3LYP) =  -653.927028370     A.U. after   11 cycles
 SCF Done:  E(RB3LYP) =  -653.927055542     A.U. after   11 cycles
 SCF Done:  E(RB3LYP) =  -653.927067090     A.U. after   10 cycles
 SCF Done:  E(RB3LYP) =  -653.927068902     A.U. after   10 cycles
 SCF Done:  E(RB3LYP) =  -653.927069631     A.U. after   10 cycles
 SCF Done:  E(RB3LYP) =  -653.927069663     A.U. after    8 cycles
 SCF Done:  E(RB3LYP) =  -653.927069689     A.U. after    8 cycles
 Optimization completed.
    -- Stationary point found.
 Normal termination of Gaussian 09 at Tue Jun 11 10:32:14 2024.

 ----------------------------------------------------------------------
 #N Geom=AllCheck Guess=TCheck SCRF=Check GenChk RB3LYP/6-31+G(d,p) Fre
 q
 ----------------------------------------------------------------------

 Structure from the checkpoint file:  "B3LYPDMAN.chk"
 ----------
 [No Title]
 ----------
 Charge =  0 Multiplicity = 1

                         Standard orientation:
 ---------------------------------------------------------------------
 Center     Atomic      Atomic             Coordinates (Angstroms)
 Number     Number       Type             X           Y           Z
 ---------------------------------------------------------------------
      1          6           0        0.685300    2.438176    0.213471
      2          6           0        2.087934    2.397839    0.350736
      3          6           0        2.758256    1.209550    0.196919
      4          6           0        2.039919   -0.000639    0.000009
      5          6           0        0.600717   -0.000180    0.000016
      6          6           0       -0.063477    1.287855   -0.011111
      7          6           0        2.757482   -1.211285   -0.196916
      8          6           0        2.086400   -2.399142   -0.350752
      9          6           0        0.683741   -2.438586   -0.213488
     10          6           0       -0.064301   -1.287792    0.011124
     11          7           0       -1.448261    1.379185   -0.263849
     12          7           0       -1.449143   -1.378254    0.263858
     13          6           0       -1.899770    0.882001   -1.561370
     14          6           0       -2.130052    2.602246    0.113931
     15          6           0       -2.131696   -2.600868   -0.113989
     16          6           0       -1.900327   -0.880894    1.561426
     17          1           0        0.193655    3.402828    0.221734
     18          1           0        2.632953    3.322096    0.518636
     19          1           0        3.843014    1.170979    0.227305
     20          1           0        3.842264   -1.173406   -0.227312
     21          1           0        2.630828   -3.323744   -0.518671
     22          1           0        0.191481   -3.402925   -0.221771
     23          1           0       -1.322043    0.010230   -1.858254
     24          1           0       -2.953249    0.589870   -1.500068
     25          1           0       -1.792487    1.657164   -2.340659
     26          1           0       -1.876588    2.874583    1.141778
     27          1           0       -1.899395    3.460108   -0.544255
     28          1           0       -3.209323    2.426989    0.060409
     29          1           0       -1.878406   -2.873302   -1.141853
     30          1           0       -1.901567   -3.458912    0.544145
     31          1           0       -3.210858   -2.424944   -0.060451
     32          1           0       -1.322017   -0.009547    1.858410
     33          1           0       -2.953608   -0.588047    1.500140
     34          1           0       -1.793580   -1.656211    2.340635
 ---------------------------------------------------------------------

 SCF Done:  E(RB3LYP) =  -653.927069689     A.U. after    1 cycles

 The electronic state is 1-A.
 Alpha  occ. eigenvalues --  -14.34335 -14.34335 -10.22824 -10.22824 -10.21262
 Alpha  occ. eigenvalues --  -10.21262 -10.20622 -10.20621 -10.20014 -10.19835
 Alpha  occ. eigenvalues --  -10.18960 -10.18960 -10.18381 -10.18381 -10.18318
 Alpha  occ. eigenvalues --  -10.18317  -0.94939  -0.93333  -0.85989  -0.81326
 Alpha  occ. eigenvalues --   -0.76504  -0.74287  -0.72395  -0.71260  -0.71002
 Alpha  occ. eigenvalues --   -0.65415  -0.65398  -0.61128  -0.59878  -0.55913
 Alpha  occ. eigenvalues --   -0.51938  -0.51217  -0.50184  -0.48046  -0.47213
 Alpha  occ. eigenvalues --   -0.46500  -0.45905  -0.45337  -0.44264  -0.42296
 Alpha  occ. eigenvalues --   -0.41113  -0.40700  -0.39767  -0.39559  -0.39212
 Alpha  occ. eigenvalues --   -0.38224  -0.38025  -0.37386  -0.37260  -0.36977
 Alpha  occ. eigenvalues --   -0.34326  -0.33668  -0.32647  -0.28940  -0.25937
 Alpha  occ. eigenvalues --   -0.24277  -0.20241  -0.18843
 Alpha virt. eigenvalues --   -0.03677  -0.01628  -0.00149   0.00885   0.01468
 Alpha virt. eigenvalues --    0.01846   0.02759   0.02867   0.03258   0.03598
 Alpha virt. eigenvalues --    0.04795   0.04968   0.05013   0.05412   0.05852

 Mulliken charges:
               1
     1  C   -0.426166
     2  C   -0.316991
     3  C   -0.302691
     4  C    0.081910
     5  C    0.141671
     6  C    0.151253
     7  C   -0.302714
     8  C   -0.316939
     9  C   -0.426087
    10  C    0.151243
    11  N   -0.010386
    12  N   -0.010388
    13  C   -0.178407
    14  C   -0.230813
    15  C   -0.230812
    16  C   -0.178402
    17  H    0.114602
    18  H    0.121011
    19  H    0.118667
    20  H    0.118667
    21  H    0.121011
    22  H    0.114602
    23  H    0.160602
    24  H    0.133534
    25  H    0.126802
    26  H    0.150668
    27  H    0.136343
    28  H    0.140128
    29  H    0.150669
    30  H    0.136342
    31  H    0.140129
    32  H    0.160603
    33  H    0.133538
    34  H    0.126803
 Sum of Mulliken charges =  -0.00000

 Dipole moment (field-independent basis, Debye):
    X=             -1.7463    Y=              0.0005    Z=              0.0000  Tot=              1.7463
 Quadrupole moment (field-independent basis, Debye-Ang):
   XX=            -91.2514   YY=            -90.9181   ZZ=           -101.8117
   XY=              0.0001   XZ=              0.0005   YZ=              1.7208

  Exact polarizability: 222.886   0.002 227.182   0.002   6.087 124.213
 Approx polarizability: 350.574   0.005 366.204   0.007  20.342 187.501

                      1                      2                      3
                      A                      A                      A
 Frequencies --     54.1359               100.1734               117.3426
 Red. masses --      3.7994                 2.3485                 1.8730
 Frc consts  --      0.0066                 0.0139                 0.0152
 IR Inten    --      0.6682                 0.2717                 2.8319

                      4                      5                      6
                      A                      A                      A
 Frequencies --    126.2197               126.9898               151.3608
 Red. masses --      2.8739                 3.0122                 2.7081
 Frc consts  --      0.0270                 0.0286                 0.0366
 IR Inten    --      1.5991                 1.2823                 0.5332

                      7                      8                      9
                      A                      A                      A
 Frequencies --    174.8798               213.0624               247.2196
 Red. masses --      1.7738                 2.2796                 1.5767
 Frc consts  --      0.0320                 0.0610                 0.0568
 IR Inten    --      0.8406                 0.0003                 0.9267

                     10                     11                     12
                      A                      A                      A
 Frequencies --    272.2953               303.9996               314.5754
 Red. masses --      1.8230                 1.4625                 1.4350
 Frc consts  --      0.0796                 0.0796                 0.0837
 IR Inten    --      4.3615                 3.0129                 1.1164

                     13                     14                     15
                      A                      A                      A
 Frequencies --    320.0772               331.2282               356.5801
 Red. masses --      2.2590                 2.1673                 2.7406
 Frc consts  --      0.1364                 0.1401                 0.2053
 IR Inten    --      3.4827                 0.2576                 1.2712

                     16                     17                     18
                      A                      A                      A
 Frequencies --    368.9680               388.7101               450.0219
 Red. masses --      3.5244                 2.7737                 2.9689
 Frc consts  --      0.2827                 0.2469                 0.3542
 IR Inten    --      4.1460                 2.6495                 1.2514

                     19                     20                     21
                      A                      A                      A
 Frequencies --    480.0821               485.3288               535.7390
 Red. masses --      4.5721                 3.5056                 3.7622
 Frc consts  --      0.6209                 0.4865                 0.6362
 IR Inten    --      5.7195                 2.4997                 1.7173

                     22                     23                     24
                      A                      A                      A
 Frequencies --    537.0265               544.1260               552.3508
 Red. masses --      3.9830                 4.0682                 5.9423
 Frc consts  --      0.6768                 0.7097                 1.0682
 IR Inten    --      5.8338                 0.0077                 1.6661

                     25                     26                     27
                      A                      A                      A
 Frequencies --    637.4871               653.8158               675.3026
 Red. masses --      4.2291                 3.9196                 3.0550
 Frc consts  --      1.0126                 0.9872                 0.8208
 IR Inten    --      2.2409                 8.5343                 7.4179

                     28                     29                     30
                      A                      A                      A
 Frequencies --    767.0225               772.3010               775.6705
 Red. masses --      1.3275                 1.7581                 5.2296
 Frc consts  --      0.4601                 0.6178                 1.8538
 IR Inten    --      0.0996                64.5785                 1.6878

                     31                     32                     33
                      A                      A                      A
 Frequencies --    795.8899               828.4947               874.9578
 Red. masses --      5.2479                 3.0165                 1.4418
 Frc consts  --      1.9586                 1.2199                 0.6503
 IR Inten    --      3.2258                45.4498                 0.2053

                     34                     35                     36
                      A                      A                      A
 Frequencies --    892.6439               907.9869               957.1963
 Red. masses --      1.5038                 4.2807                 3.6084
 Frc consts  --      0.7060                 2.0793                 1.9479
 IR Inten    --      1.9878                 2.9558                37.2614

                     37                     38                     39
                      A                      A                      A
 Frequencies --    969.2465               978.7589              1052.5445
 Red. masses --      1.2914                 1.3065                 2.6159
 Frc consts  --      0.7148                 0.7374                 1.7075
 IR Inten    --      0.5574                 0.5254                90.1704

                     40                     41                     42
                      A                      A                      A
 Frequencies --   1061.4386              1084.0169              1084.2029
 Red. masses --      4.2142                 1.4610                 1.4427
 Frc consts  --      2.7974                 1.0115                 0.9992
 IR Inten    --     26.2548                22.3682                11.4459

                     43                     44                     45
                      A                      A                      A
 Frequencies --   1115.4518              1117.9466              1129.4432
 Red. masses --      1.2925                 1.3631                 1.7559
 Frc consts  --      0.9475                 1.0037                 1.3197
 IR Inten    --     10.5869                 5.4963                 0.0651

                     46                     47                     48
                      A                      A                      A
 Frequencies --   1137.8421              1164.1714              1167.5048
 Red. masses --      1.6980                 1.4504                 1.4402
 Frc consts  --      1.2953                 1.1582                 1.1566
 IR Inten    --      4.1549                 1.7440                47.5516

                     49                     50                     51
                      A                      A                      A
 Frequencies --   1184.2301              1192.9956              1219.4668
 Red. masses --      1.3099                 1.2666                 3.1855
 Frc consts  --      1.0823                 1.0621                 2.7911
 IR Inten    --      1.1324                 2.7062                31.6075

                     52                     53                     54
                      A                      A                      A
 Frequencies --   1228.5978              1234.8548              1253.1072
 Red. masses --      1.5704                 2.0413                 2.9376
 Frc consts  --      1.3967                 1.8339                 2.7178
 IR Inten    --      4.4584                 6.8771                15.0302

                     55                     56                     57
                      A                      A                      A
 Frequencies --   1257.0110              1348.9028              1360.0780
 Red. masses --      2.5225                 3.2985                 2.0383
 Frc consts  --      2.3483                 3.5361                 2.2215
 IR Inten    --     18.6289                15.9589                45.7079

                     58                     59                     60
                      A                      A                      A
 Frequencies --   1381.5642              1385.5910              1421.0805
 Red. masses --      7.2088                 3.6054                 3.2935
 Frc consts  --      8.1069                 4.0782                 3.9188
 IR Inten    --     15.8127                20.2622                86.7080

                     61                     62                     63
                      A                      A                      A
 Frequencies --   1450.4647              1451.4164              1464.8360
 Red. masses --      1.1555                 1.1619                 1.6930
 Frc consts  --      1.4322                 1.4422                 2.1403
 IR Inten    --      0.0790                 1.6375                20.9266

                     64                     65                     66
                      A                      A                      A
 Frequencies --   1471.8938              1478.8669              1483.4055
 Red. masses --      1.4123                 1.1237                 1.2226
 Frc consts  --      1.8027                 1.4480                 1.5851
 IR Inten    --      3.9237                 2.1086                 0.0257

                     67                     68                     69
                      A                      A                      A
 Frequencies --   1484.2815              1491.9084              1497.6244
 Red. masses --      1.0595                 1.1528                 1.0507
 Frc consts  --      1.3753                 1.5118                 1.3884
 IR Inten    --      6.8456                 6.2103                31.1024

                     70                     71                     72
                      A                      A                      A
 Frequencies --   1499.5658              1506.5964              1508.8077
 Red. masses --      1.1749                 1.0538                 1.3656
 Frc consts  --      1.5566                 1.4093                 1.8317
 IR Inten    --     19.1679                 2.3541                18.1850

                     73                     74                     75
                      A                      A                      A
 Frequencies --   1526.5276              1530.5805              1554.7778
 Red. masses --      1.1062                 1.1082                 3.7587
 Frc consts  --      1.5188                 1.5296                 5.3534
 IR Inten    --     12.4887                27.2317                26.6459

                     76                     77                     78
                      A                      A                      A
 Frequencies --   1623.2912              1642.8529              1654.1831
 Red. masses --      5.7468                 5.2772                 5.8772
 Frc consts  --      8.9221                 8.3917                 9.4752
 IR Inten    --    207.4834                 0.4449                12.2633

                     79                     80                     81
                      A                      A                      A
 Frequencies --   2940.3375              2940.6536              2954.9553
 Red. masses --      1.0601                 1.0600                 1.0609
 Frc consts  --      5.4000                 5.4005                 5.4577
 IR Inten    --    170.1139                14.5476               283.0270

                     82                     83                     84
                      A                      A                      A
 Frequencies --   2956.9762              3068.5364              3068.5979
 Red. masses --      1.0607                 1.0724                 1.0730
 Frc consts  --      5.4645                 5.9493                 5.9529
 IR Inten    --     49.5809                20.5092                41.1834

                     85                     86                     87
                      A                      A                      A
 Frequencies --   3075.8802              3075.9588              3121.9626
 Red. masses --      1.0807                 1.0812                 1.1026
 Frc consts  --      6.0242                 6.0274                 6.3318
 IR Inten    --     84.8775                16.8699                16.1301

                     88                     89                     90
                      A                      A                      A
 Frequencies --   3121.9828              3179.3585              3181.2382
 Red. masses --      1.1025                 1.0860                 1.0861
 Frc consts  --      6.3312                 6.4676                 6.4758
 IR Inten    --     25.1569                 6.0579                 0.2247

                     91                     92                     93
                      A                      A                      A
 Frequencies --   3184.3152              3184.6163              3196.9404
 Red. masses --      1.0943                 1.0941                 1.0954
 Frc consts  --      6.5376                 6.5374                 6.5961
 IR Inten    --      5.1492                11.7067                12.4269

                     94                     95                     96
                      A                      A                      A
 Frequencies --   3199.6310              3225.7682              3225.8114
 Red. masses --      1.0946                 1.0911                 1.0909
 Frc consts  --      6.6026                 6.6892                 6.6881
 IR Inten    --     47.8625                20.6571                 2.0248

 - Thermochemistry -
 -------------------
 Temperature   298.150 Kelvin.  Pressure   1.00000 Atm.
 Atom     1 has atomic number  6 and mass  12.00000

 Molecular mass:   214.14700 amu.
 Principal axes and moments of inertia in atomic units:
                           1         2         3
     Eigenvalues --  2819.530892875.264585035.80386
           X            1.00000   0.00004  -0.00000
           Y           -0.00004   1.00000  -0.00160
           Z            0.00000   0.00160   1.00000
 This molecule is an asymmetric top.
 Rotational symmetry number  1.
 Warning -- assumption of classical behavior for rotation
           may cause significant error
 Rotational temperatures (Kelvin)      0.03072     0.03012     0.01720
 Rotational constants (GHZ):           0.64009     0.62768     0.35838
 Zero-point vibrational energy     770674.5 (Joules/Mol)
                                  184.19562 (Kcal/Mol)
 Warning -- explicit consideration of  24 degrees of freedom as
           vibrations may cause significant error
 Vibrational temperatures:     77.89   144.13   168.83   181.60   182.71
          (Kelvin)            217.77   251.61   306.55   355.69   391.77
                              437.39   452.60   460.52   476.56   513.04
                              530.86   559.27   647.48   690.73   698.28
                              770.81   772.66   782.87   794.71   917.20
                              940.69   971.61  1103.57  1111.17  1116.02
                             1145.11  1192.02  1258.87  1284.31  1306.39
                             1377.19  1394.53  1408.21  1514.37  1527.17
                             1559.66  1559.92  1604.88  1608.47  1625.01
                             1637.10  1674.98  1679.78  1703.84  1716.45
                             1754.54  1767.68  1776.68  1802.94  1808.56
                             1940.77  1956.85  1987.76  1993.55  2044.62
                             2086.89  2088.26  2107.57  2117.72  2127.76
                             2134.29  2135.55  2146.52  2154.74  2157.54
                             2167.65  2170.84  2196.33  2202.16  2236.98
                             2335.55  2363.70  2380.00  4230.48  4230.94
                             4251.52  4254.42  4414.93  4415.02  4425.50
                             4425.61  4491.80  4491.83  4574.38  4577.09
                             4581.51  4581.95  4599.68  4603.55  4641.16
                             4641.22

 Zero-point correction=                           0.293534 (Hartree/Particle)
 Thermal correction to Energy=                    0.308429
 Thermal correction to Enthalpy=                  0.309373
 Thermal correction to Gibbs Free Energy=         0.252941
 Sum of electronic and zero-point Energies=           -653.633535
 Sum of electronic and thermal Energies=              -653.618641
 Sum of electronic and thermal Enthalpies=            -653.617697
 Sum of electronic and thermal Free Energies=         -653.674128

                     E (Thermal)             CV                S
                      KCal/Mol        Cal/Mol-Kelvin    Cal/Mol-Kelvin
 Total                  193.542             59.274            118.770
 Electronic               0.000              0.000              0.000
 Translational            0.889              2.981             41.988
 Rotational               0.889              2.981             32.079
 Vibrational            191.765             53.313             44.703
 Vibration     1          0.596              1.976              4.660
 Vibration     2          0.604              1.949              3.451
 Vibration     3          0.608              1.935              3.144
 Vibration     4          0.611              1.927              3.003
 Vibration     5          0.611              1.926              2.991
 Vibration     6          0.619              1.901              2.655
 Vibration     7          0.627              1.873              2.382
 Vibration     8          0.644              1.821              2.017
 Vibration     9          0.661              1.767              1.750
 Vibration    10          0.675              1.724              1.582
 Vibration    11          0.695              1.666              1.395
 Vibration    12          0.702              1.646              1.338
 Vibration    13          0.706              1.635              1.310
 Vibration    14          0.714              1.613              1.254
 Vibration    15          0.732              1.562              1.137
 Vibration    16          0.741              1.536              1.084
 Vibration    17          0.757              1.494              1.005
 Vibration    18          0.809              1.361              0.796
 Vibration    19          0.836              1.294              0.710
 Vibration    20          0.841              1.283              0.696
 Vibration    21          0.891              1.171              0.575
 Vibration    22          0.892              1.168              0.572
 Vibration    23          0.899              1.153              0.556
 Vibration    24          0.908              1.135              0.539

 Optimization completed.
    -- Stationary point found.
 Normal termination of Gaussian 09 at Tue Jun 11 10:45:44 2024.
