 Gaussian 09, Revision E.01,
 Gaussian 09:  ES64L-G09RevE.01 30-Nov-2015

 ------------------------------------
 # opt freq b3lyp/6-31+g(d,p)em=gd3bj
 ------------------------------------

 ----------
 [No Title]
 ----------
 Symbolic Z-matrix:
 Charge =  1 Multiplicity = 1

 SCF Done:  E(RB3LYP) =  -654.225460526     A.U. after   15 cycles
 SCF Done:  E(RB3LYP) =  -654.285890689     A.U. after   13 cycles
 SCF Done:  E(RB3LYP) =  -654.292299515     A.U. after   14 cycles
 SCF Done:  E(RB3LYP) =  -654.304707752     A.U. after   15 cycles
 SCF Done:  E(RB3LYP) =  -654.302731326     A.U. after   15 cycles
 SCF Done:  E(RB3LYP) =  -654.309289431     A.U. after   13 cycles
 SCF Done:  E(RB3LYP) =  -654.318166939     A.U. after   14 cycles
 SCF Done:  E(RB3LYP) =  -654.324735930     A.U. after   15 cycles
 SCF Done:  E(RB3LYP) =  -654.328403081     A.U. after   13 cycles
 SCF Done:  E(RB3LYP) =  -654.331217670     A.U. after   12 cycles
 SCF Done:  E(RB3LYP) =  -654.334621247     A.U. after   13 cycles
 SCF Done:  E(RB3LYP) =  -654.334874685     A.U. after   14 cycles
 SCF Done:  E(RB3LYP) =  -654.334968092     A.U. after   11 cycles
 SCF Done:  E(RB3LYP) =  -654.335020476     A.U. after   11 cycles
 SCF Done:  E(RB3LYP) =  -654.335036767     A.U. after   11 cycles
 SCF Done:  E(RB3LYP) =  -654.335050470     A.U. after   11 cycles
 SCF Done:  E(RB3LYP) =  -654.335061231     A.U. after   11 cycles
 SCF Done:  E(RB3LYP) =  -654.335063778     A.U. after   10 cycles
 SCF Done:  E(RB3LYP) =  -654.335064138     A.U. after    9 cycles
 Optimization completed.
    -- Stationary point found.
 Normal termination of Gaussian 09 at Tue Jun 11 16:31:41 2024.

 ----------------------------------------------------------------------
 #N Geom=AllCheck Guess=TCheck SCRF=Check GenChk RB3LYP/6-31+G(d,p) Fre
 q
 ----------------------------------------------------------------------

 Structure from the checkpoint file:  "b3lypDMANyang.chk"
 ----------
 [No Title]
 ----------
 Charge =  1 Multiplicity = 1

                         Standard orientation:
 ---------------------------------------------------------------------
 Center     Atomic      Atomic             Coordinates (Angstroms)
 Number     Number       Type             X           Y           Z
 ---------------------------------------------------------------------
      1          6           0       -0.747760   -2.439947   -0.000202
      2          6           0       -2.159306   -2.404605   -0.000091
      3          6           0       -2.810780   -1.193110    0.000144
      4          6           0       -2.091128    0.030961    0.000198
      5          6           0       -0.652639    0.014504    0.000094
      6          6           0       -0.027488   -1.268783   -0.000126
      7          6           0       -2.777572    1.273493    0.000173
      8          6           0       -2.086110    2.461947   -0.000082
      9          6           0       -0.673685    2.454298   -0.000219
     10          6           0        0.032654    1.271050    0.000128
     11          7           0        1.449734   -1.318698   -0.000125
     12          7           0        1.493897    1.274379   -0.000094
     13          6           0        2.015232   -1.930012    1.240407
     14          6           0        2.015301   -1.930430   -1.240424
     15          6           0        2.063203    1.882137   -1.224601
     16          6           0        2.063563    1.881084    1.224863
     17          1           0       -0.238579   -3.398290   -0.000469
     18          1           0       -2.718069   -3.333648   -0.000228
     19          1           0       -3.895447   -1.155195    0.000272
     20          1           0       -3.862811    1.267085    0.000481
     21          1           0       -2.616324    3.407977   -0.000236
     22          1           0       -0.138765    3.398443   -0.000493
     23          1           0        1.701340   -0.228463   -0.000337
     24          1           0        3.099433   -1.804623    1.229203
     25          1           0        1.587479   -1.422621    2.104957
     26          1           0        1.768094   -2.991727    1.281584
     27          1           0        3.099511   -1.805147   -1.229160
     28          1           0        1.587682   -1.423237   -2.105161
     29          1           0        1.768071   -2.992136   -1.281388
     30          1           0        1.627075    1.403598   -2.103737
     31          1           0        1.862911    2.958701   -1.277626
     32          1           0        3.145389    1.727791   -1.228028
     33          1           0        1.627074    1.402329    2.103680
     34          1           0        3.145664    1.726122    1.228189
     35          1           0        1.863946    2.957754    1.278453
 ---------------------------------------------------------------------

 SCF Done:  E(RB3LYP) =  -654.335064138     A.U. after    1 cycles

 The electronic state is 1-A.
 Alpha  occ. eigenvalues --  -14.57072 -14.50850 -10.38017 -10.37667 -10.37667
 Alpha  occ. eigenvalues --  -10.36665 -10.35167 -10.34915 -10.34914 -10.34034
 Alpha  occ. eigenvalues --  -10.33957 -10.32945 -10.32762 -10.32690 -10.32299
 Alpha  occ. eigenvalues --  -10.32234  -1.14270  -1.08603  -1.00946  -0.95836
 Alpha  occ. eigenvalues --   -0.91450  -0.88602  -0.88492  -0.86518  -0.85327
 Alpha  occ. eigenvalues --   -0.82630  -0.79418  -0.76766  -0.74861  -0.72070
 Alpha  occ. eigenvalues --   -0.68337  -0.66596  -0.65935  -0.63680  -0.63468
 Alpha  occ. eigenvalues --   -0.62394  -0.60106  -0.59857  -0.59368  -0.57421
 Alpha  occ. eigenvalues --   -0.56799  -0.56614  -0.55394  -0.54952  -0.54393
 Alpha  occ. eigenvalues --   -0.53865  -0.52953  -0.52384  -0.52352  -0.51340
 Alpha  occ. eigenvalues --   -0.50971  -0.48369  -0.47819  -0.46344  -0.42289
 Alpha  occ. eigenvalues --   -0.39298  -0.38471  -0.35490
 Alpha virt. eigenvalues --   -0.18548  -0.15430  -0.12551  -0.11930  -0.10052
 Alpha virt. eigenvalues --   -0.09465  -0.09356  -0.08808  -0.08271  -0.07273
 Alpha virt. eigenvalues --   -0.07071  -0.06765  -0.05780  -0.05543  -0.05294

 Mulliken charges:
               1
     1  C   -0.008715
     2  C   -0.223654
     3  C   -0.047476
     4  C   -0.394023
     5  C   -0.019665
     6  C   -0.170605
     7  C   -0.070581
     8  C   -0.215156
     9  C   -0.009531
    10  C   -0.187775
    11  N   -0.337714
    12  N   -0.396743
    13  C   -0.124806
    14  C   -0.124702
    15  C   -0.117046
    16  C   -0.116979
    17  H    0.142934
    18  H    0.162553
    19  H    0.157386
    20  H    0.155611
    21  H    0.161031
    22  H    0.144087
    23  H    0.484414
    24  H    0.186230
    25  H    0.192557
    26  H    0.191532
    27  H    0.186231
    28  H    0.192570
    29  H    0.191518
    30  H    0.167954
    31  H    0.172532
    32  H    0.167742
    33  H    0.167947
    34  H    0.167748
    35  H    0.172596
 Sum of Mulliken charges =   1.00000

 Dipole moment (field-independent basis, Debye):
    X=              3.9456    Y=             -1.5970    Z=             -0.0002  Tot=              4.2565
 Quadrupole moment (field-independent basis, Debye-Ang):
   XX=            -63.7098   YY=            -65.3604   ZZ=            -92.0422
   XY=             -3.1068   XZ=             -0.0006   YZ=              0.0003

  Exact polarizability: 196.035   0.751 212.859  -0.001   0.000 110.927
 Approx polarizability: 298.551   0.872 360.371  -0.003  -0.002 166.282

                      1                      2                      3
                      A                      A                      A
 Frequencies --     26.7209                83.6956               129.9178
 Red. masses --      3.5059                 2.7109                 3.3097
 Frc consts  --      0.0015                 0.0112                 0.0329
 IR Inten    --      0.0750                 0.1391                 0.4479

                      4                      5                      6
                      A                      A                      A
 Frequencies --    141.6920               167.5428               178.2582
 Red. masses --      2.3797                 2.7315                 3.1995
 Frc consts  --      0.0281                 0.0452                 0.0599
 IR Inten    --      0.2160                17.0096                 3.6175

                      7                      8                      9
                      A                      A                      A
 Frequencies --    191.2054               221.1048               227.9401
 Red. masses --      3.5919                 1.1286                 1.3642
 Frc consts  --      0.0774                 0.0325                 0.0418
 IR Inten    --      0.2700                 0.0694                 0.5801

                     10                     11                     12
                      A                      A                      A
 Frequencies --    241.2410               256.7120               259.1695
 Red. masses --      1.0807                 1.3650                 1.7618
 Frc consts  --      0.0371                 0.0530                 0.0697
 IR Inten    --      0.0290                 3.6827                 0.5086

                     13                     14                     15
                      A                      A                      A
 Frequencies --    273.7839               320.5322               322.3327
 Red. masses --      2.2489                 2.7334                 3.3428
 Frc consts  --      0.0993                 0.1655                 0.2046
 IR Inten    --      0.1180                 2.3369                 0.1804

                     16                     17                     18
                      A                      A                      A
 Frequencies --    382.8472               430.7260               447.8428
 Red. masses --      3.6949                 3.1538                 2.9559
 Frc consts  --      0.3191                 0.3447                 0.3493
 IR Inten    --     12.6359                27.7721                 0.3253

                     19                     20                     21
                      A                      A                      A
 Frequencies --    478.4324               503.2654               531.4065
 Red. masses --      3.3514                 5.4003                 3.9710
 Frc consts  --      0.4520                 0.8059                 0.6607
 IR Inten    --      0.5120                21.6074                17.7946

                     22                     23                     24
                      A                      A                      A
 Frequencies --    538.8120               539.7556               572.2171
 Red. masses --      3.5904                 5.3002                 3.8674
 Frc consts  --      0.6141                 0.9098                 0.7461
 IR Inten    --      0.0195                 1.1969                 3.7175

                     25                     26                     27
                      A                      A                      A
 Frequencies --    644.8232               667.7834               677.0821
 Red. masses --      4.1016                 3.1540                 3.6109
 Frc consts  --      1.0048                 0.8287                 0.9753
 IR Inten    --      0.2086                 0.1024                70.3512

                     28                     29                     30
                      A                      A                      A
 Frequencies --    773.6650               781.0733               788.1164
 Red. masses --      4.8341                 2.1540                 1.2872
 Frc consts  --      1.7048                 0.7742                 0.4711
 IR Inten    --      1.7881                61.8242                 0.1924

                     31                     32                     33
                      A                      A                      A
 Frequencies --    798.3858               845.4625               881.4468
 Red. masses --      5.2897                 2.2389                 4.0107
 Frc consts  --      1.9866                 0.9429                 1.8360
 IR Inten    --      0.4114                29.5199                47.4281

                     34                     35                     36
                      A                      A                      A
 Frequencies --    916.6378               928.5811               947.2256
 Red. masses --      3.7463                 1.3775                 1.4443
 Frc consts  --      1.8546                 0.6998                 0.7635
 IR Inten    --     35.1931                 0.2531                 2.2556

                     37                     38                     39
                      A                      A                      A
 Frequencies --    998.9843              1010.3208              1014.3634
 Red. masses --      1.3349                 1.3565                 3.4154
 Frc consts  --      0.7849                 0.8158                 2.0705
 IR Inten    --      0.0021                 0.0487                37.0392

                     40                     41                     42
                      A                      A                      A
 Frequencies --   1017.4685              1040.5706              1047.2924
 Red. masses --      2.1240                 1.8574                 3.9160
 Frc consts  --      1.2955                 1.1849                 2.5306
 IR Inten    --     14.2114                16.4525                10.6304

                     43                     44                     45
                      A                      A                      A
 Frequencies --   1088.2624              1107.1889              1111.9761
 Red. masses --      1.2030                 2.0939                 1.2431
 Frc consts  --      0.8394                 1.5123                 0.9056
 IR Inten    --      0.2981                13.9250                 1.3365

                     46                     47                     48
                      A                      A                      A
 Frequencies --   1113.1339              1182.2379              1184.4787
 Red. masses --      1.8476                 2.0632                 1.2870
 Frc consts  --      1.3488                 1.6990                 1.0639
 IR Inten    --      2.1655                 4.3301                 7.6609

                     49                     50                     51
                      A                      A                      A
 Frequencies --   1190.0067              1199.9325              1200.3289
 Red. masses --      1.4082                 2.6575                 1.4873
 Frc consts  --      1.1750                 2.2544                 1.2626
 IR Inten    --      2.7428                 9.2908                 9.6018

                     52                     53                     54
                      A                      A                      A
 Frequencies --   1210.3825              1229.2309              1241.7923
 Red. masses --      1.3201                 1.5607                 1.6782
 Frc consts  --      1.1395                 1.3894                 1.5247
 IR Inten    --     20.8490                36.3229                48.2879

                     55                     56                     57
                      A                      A                      A
 Frequencies --   1252.1023              1279.3185              1302.5401
 Red. masses --      2.0812                 2.2523                 2.4650
 Frc consts  --      1.9224                 2.1719                 2.4640
 IR Inten    --      6.2146                 1.2918                18.2345

                     58                     59                     60
                      A                      A                      A
 Frequencies --   1383.5867              1390.6259              1403.4718
 Red. masses --      2.3495                 3.7166                 4.9194
 Frc consts  --      2.6500                 4.2347                 5.7091
 IR Inten    --    112.9478                20.9078                12.6709

                     61                     62                     63
                      A                      A                      A
 Frequencies --   1440.3262              1445.8118              1450.4945
 Red. masses --      1.4139                 1.1414                 1.1403
 Frc consts  --      1.7282                 1.4058                 1.4135
 IR Inten    --    100.4493                 0.9241                 6.0668

                     64                     65                     66
                      A                      A                      A
 Frequencies --   1474.4572              1481.2845              1483.5593
 Red. masses --      1.6194                 1.2509                 1.0429
 Frc consts  --      2.0743                 1.6171                 1.3523
 IR Inten    --      0.0638                 1.6294                 0.0609

                     67                     68                     69
                      A                      A                      A
 Frequencies --   1491.9984              1495.1475              1496.8630
 Red. masses --      1.0491                 1.3697                 1.0436
 Frc consts  --      1.3760                 1.8040                 1.3777
 IR Inten    --      2.8835                 1.0464                 3.8109

                     70                     71                     72
                      A                      A                      A
 Frequencies --   1505.9029              1506.7475              1510.7364
 Red. masses --      1.0446                 1.5639                 1.0662
 Frc consts  --      1.3957                 2.0920                 1.4338
 IR Inten    --     12.7500                14.3157                 2.4949

                     73                     74                     75
                      A                      A                      A
 Frequencies --   1514.6581              1523.6986              1539.8534
 Red. masses --      1.1025                 1.0625                 2.6041
 Frc consts  --      1.4902                 1.4534                 3.6381
 IR Inten    --      5.9696                25.0804               157.8276

                     76                     77                     78
                      A                      A                      A
 Frequencies --   1594.2285              1625.7748              1663.5616
 Red. masses --      1.7353                 6.0089                 4.1679
 Frc consts  --      2.5986                 9.3577                 6.7959
 IR Inten    --    312.4784                14.4140                59.6865

                     79                     80                     81
                      A                      A                      A
 Frequencies --   1677.2374              1679.2519              2034.5320
 Red. masses --      1.0832                 5.5549                 1.1160
 Frc consts  --      1.7953                 9.2291                 2.7217
 IR Inten    --      3.4624                79.0891              1015.0472

                     82                     83                     84
                      A                      A                      A
 Frequencies --   3038.6371              3042.9965              3077.3294
 Red. masses --      1.0360                 1.0373                 1.0310
 Frc consts  --      5.6361                 5.6593                 5.7523
 IR Inten    --     20.2458                22.7544                 5.7685

                     85                     86                     87
                      A                      A                      A
 Frequencies --   3081.4243              3115.6756              3116.2429
 Red. masses --      1.0318                 1.1008                 1.0992
 Frc consts  --      5.7722                 6.2959                 6.2890
 IR Inten    --      6.5198                 1.5128                23.0126

                     88                     89                     90
                      A                      A                      A
 Frequencies --   3147.9747              3149.8931              3167.6158
 Red. masses --      1.1052                 1.1057                 1.1078
 Frc consts  --      6.4529                 6.4637                 6.5490
 IR Inten    --      4.8768                19.1747                 0.0239

                     91                     92                     93
                      A                      A                      A
 Frequencies --   3169.9125              3180.9847              3181.9213
 Red. masses --      1.1070                 1.1070                 1.1077
 Frc consts  --      6.5536                 6.5995                 6.6076
 IR Inten    --      7.1160                 0.9944                 4.1253

                     94                     95                     96
                      A                      A                      A
 Frequencies --   3200.8967              3201.5635              3205.4950
 Red. masses --      1.0882                 1.0887                 1.0915
 Frc consts  --      6.5693                 6.5746                 6.6078
 IR Inten    --      0.4313                 3.6268                 0.3235

                     97                     98                     99
                      A                      A                      A
 Frequencies --   3207.6104              3223.1843              3226.0324
 Red. masses --      1.0911                 1.0972                 1.0969
 Frc consts  --      6.6140                 6.7161                 6.7258
 IR Inten    --      5.3098                 2.1627                 1.1673

 - Thermochemistry -
 -------------------
 Temperature   298.150 Kelvin.  Pressure   1.00000 Atm.
 Atom     1 has atomic number  6 and mass  12.00000

 Molecular mass:   215.15482 amu.
 Principal axes and moments of inertia in atomic units:
                           1         2         3
     Eigenvalues --  2826.713272995.647515083.38830
           X            0.99999  -0.00317   0.00000
           Y            0.00317   0.99999  -0.00000
           Z           -0.00000   0.00000   1.00000
 This molecule is an asymmetric top.
 Rotational symmetry number  1.
 Warning -- assumption of classical behavior for rotation
           may cause significant error
 Rotational temperatures (Kelvin)      0.03064     0.02891     0.01704
 Rotational constants (GHZ):           0.63846     0.60245     0.35503
 Zero-point vibrational energy     805616.4 (Joules/Mol)
                                  192.54695 (Kcal/Mol)
 Warning -- explicit consideration of  24 degrees of freedom as
           vibrations may cause significant error
 Vibrational temperatures:     38.45   120.42   186.92   203.86   241.06
          (Kelvin)            256.47   275.10   318.12   327.95   347.09
                              369.35   372.89   393.91   461.17   463.76
                              550.83   619.72   644.35   688.36   724.09
                              764.57   775.23   776.59   823.29   927.76
                              960.79   974.17  1113.13  1123.79  1133.92
                             1148.70  1216.43  1268.20  1318.84  1336.02
                             1362.84  1437.31  1453.62  1459.44  1463.91
                             1497.15  1506.82  1565.76  1593.00  1599.88
                             1601.55  1700.97  1704.20  1712.15  1726.43
                             1727.00  1741.47  1768.59  1786.66  1801.49
                             1840.65  1874.06  1990.67  2000.80  2019.28
                             2072.31  2080.20  2086.94  2121.41  2131.24
                             2134.51  2146.65  2151.18  2153.65  2166.66
                             2167.87  2173.61  2179.25  2192.26  2215.50
                             2293.74  2339.12  2393.49  2413.17  2416.07
                             2927.23  4371.92  4378.19  4427.59  4433.48
                             4482.76  4483.57  4529.23  4531.99  4557.49
                             4560.79  4576.72  4578.07  4605.37  4606.33
                             4611.99  4615.03  4637.44  4641.54

 Zero-point correction=                           0.306843 (Hartree/Particle)
 Thermal correction to Energy=                    0.321861
 Thermal correction to Enthalpy=                  0.322805
 Thermal correction to Gibbs Free Energy=         0.265662
 Sum of electronic and zero-point Energies=           -654.028221
 Sum of electronic and thermal Energies=              -654.013203
 Sum of electronic and thermal Enthalpies=            -654.012259
 Sum of electronic and thermal Free Energies=         -654.069402

                     E (Thermal)             CV                S
                      KCal/Mol        Cal/Mol-Kelvin    Cal/Mol-Kelvin
 Total                  201.971             59.571            120.268
 Electronic               0.000              0.000              0.000
 Translational            0.889              2.981             42.002
 Rotational               0.889              2.981             32.132
 Vibrational            200.193             53.609             46.134
 Vibration     1          0.593              1.984              6.059
 Vibration     2          0.601              1.960              3.802
 Vibration     3          0.612              1.923              2.947
 Vibration     4          0.615              1.912              2.781
 Vibration     5          0.624              1.882              2.463
 Vibration     6          0.629              1.869              2.347
 Vibration     7          0.634              1.852              2.216
 Vibration     8          0.648              1.809              1.950
 Vibration     9          0.651              1.798              1.895
 Vibration    10          0.658              1.777              1.794
 Vibration    11          0.666              1.751              1.684
 Vibration    12          0.668              1.747              1.667
 Vibration    13          0.676              1.722              1.572
 Vibration    14          0.706              1.634              1.307
 Vibration    15          0.707              1.631              1.298
 Vibration    16          0.752              1.507              1.028
 Vibration    17          0.792              1.403              0.856
 Vibration    18          0.807              1.366              0.802
 Vibration    19          0.835              1.298              0.714
 Vibration    20          0.859              1.243              0.650
 Vibration    21          0.886              1.181              0.584
 Vibration    22          0.894              1.164              0.568
 Vibration    23          0.895              1.162              0.566
 Vibration    24          0.928              1.091              0.500

 Normal termination of Gaussian 09 at Tue Jun 11 16:45:12 2024.
