 Gaussian 09, Revision E.01,
 Gaussian 09:  ES64L-G09RevE.01 30-Nov-2015

 -------------------------------------------------------
 # opt freq b3pw91/6-31+g(d,p) EmpiricalDispersion=GD3BJ
 -------------------------------------------------------

 ----------
 [No Title]
 ----------
 Symbolic Z-matrix:
 Charge =  1 Multiplicity = 1

 SCF Done:  E(RB3PW91) =  -654.088989639     A.U. after   14 cycles
 SCF Done:  E(RB3PW91) =  -654.087754121     A.U. after   12 cycles
 SCF Done:  E(RB3PW91) =  -654.089123192     A.U. after    8 cycles
 SCF Done:  E(RB3PW91) =  -654.089184223     A.U. after   10 cycles
 SCF Done:  E(RB3PW91) =  -654.089199745     A.U. after   10 cycles
 SCF Done:  E(RB3PW91) =  -654.089144895     A.U. after   11 cycles
 SCF Done:  E(RB3PW91) =  -654.089207483     A.U. after   11 cycles
 SCF Done:  E(RB3PW91) =  -654.089213688     A.U. after    9 cycles
 SCF Done:  E(RB3PW91) =  -654.089215545     A.U. after    9 cycles
 Optimization completed.
    -- Stationary point found.
 Normal termination of Gaussian 09 at Thu Dec 19 10:53:14 2024.

 ----------------------------------------------------------------------
 #N Geom=AllCheck Guess=TCheck SCRF=Check GenChk RB3PW91/6-31+G(d,p) Fr
 eq
 ----------------------------------------------------------------------

 Structure from the checkpoint file:  "B3PW91D3BJDMANyang.chk"
 ----------
 [No Title]
 ----------
 Charge =  1 Multiplicity = 1

                         Standard orientation:
 ---------------------------------------------------------------------
 Center     Atomic      Atomic             Coordinates (Angstroms)
 Number     Number       Type             X           Y           Z
 ---------------------------------------------------------------------
      1          6           0        0.749170   -2.433082    0.000063
      2          6           0        2.158199   -2.394718    0.000056
      3          6           0        2.807545   -1.184023    0.000007
      4          6           0        2.086809    0.036375   -0.000032
      5          6           0        0.652274    0.014923   -0.000019
      6          6           0        0.027392   -1.264750    0.000021
      7          6           0        2.766757    1.279400   -0.000078
      8          6           0        2.071356    2.463838   -0.000104
      9          6           0        0.661605    2.451332   -0.000078
     10          6           0       -0.035801    1.265232   -0.000034
     11          7           0       -1.441152   -1.308157    0.000001
     12          7           0       -1.492253    1.256353    0.000021
     13          6           0       -2.001785   -1.915819   -1.232925
     14          6           0       -2.001830   -1.915519    1.233058
     15          6           0       -2.062630    1.855105    1.220650
     16          6           0       -2.062718    1.854946   -1.220644
     17          1           0        0.240905   -3.392681    0.000091
     18          1           0        2.719160   -3.322960    0.000084
     19          1           0        3.892619   -1.144887   -0.000000
     20          1           0        3.852475    1.278219   -0.000091
     21          1           0        2.598658    3.411932   -0.000137
     22          1           0        0.121498    3.393302   -0.000087
     23          1           0       -1.684040   -0.189902   -0.000152
     24          1           0       -3.085666   -1.784831   -1.229235
     25          1           0       -1.568499   -1.415704   -2.099410
     26          1           0       -1.763529   -2.980414   -1.273867
     27          1           0       -3.085711   -1.784543    1.229289
     28          1           0       -1.568585   -1.415181    2.099435
     29          1           0       -1.763565   -2.980101    1.274280
     30          1           0       -1.617480    1.383223    2.098802
     31          1           0       -1.874294    2.933715    1.271184
     32          1           0       -3.143031    1.688828    1.228766
     33          1           0       -1.617644    1.382938   -2.098767
     34          1           0       -3.143121    1.688684   -1.228651
     35          1           0       -1.874368    2.933546   -1.271338
 ---------------------------------------------------------------------

 SCF Done:  E(RB3PW91) =  -654.089215545     A.U. after    1 cycles

 The electronic state is 1-A.
 Alpha  occ. eigenvalues --  -14.55800 -14.50783 -10.36741 -10.35972 -10.35972
 Alpha  occ. eigenvalues --  -10.35656 -10.33991 -10.33771 -10.33770 -10.32805
 Alpha  occ. eigenvalues --  -10.32734 -10.31851 -10.31498 -10.31426 -10.31124
 Alpha  occ. eigenvalues --  -10.31058  -1.14805  -1.09849  -1.01581  -0.96390
 Alpha  occ. eigenvalues --   -0.91971  -0.89056  -0.88675  -0.86965  -0.86076
 Alpha  occ. eigenvalues --   -0.82736  -0.79962  -0.77151  -0.75113  -0.72386
 Alpha  occ. eigenvalues --   -0.68508  -0.67021  -0.66230  -0.64009  -0.63629
 Alpha  occ. eigenvalues --   -0.62612  -0.60825  -0.60173  -0.59571  -0.57632
 Alpha  occ. eigenvalues --   -0.56649  -0.56555  -0.55325  -0.54853  -0.54272
 Alpha  occ. eigenvalues --   -0.54000  -0.53114  -0.52747  -0.52164  -0.51601
 Alpha  occ. eigenvalues --   -0.51010  -0.48366  -0.47844  -0.46695  -0.42604
 Alpha  occ. eigenvalues --   -0.39606  -0.38804  -0.35754
 Alpha virt. eigenvalues --   -0.18697  -0.15547  -0.11901  -0.11380  -0.08945
 Alpha virt. eigenvalues --   -0.08352  -0.08203  -0.07930  -0.07267  -0.06216
 Alpha virt. eigenvalues --   -0.06025  -0.05675  -0.05297  -0.04712  -0.04569

 Mulliken charges:
               1
     1  C   -0.136631
     2  C   -0.273653
     3  C   -0.173794
     4  C   -0.219041
     5  C    0.048878
     6  C   -0.043895
     7  C   -0.199820
     8  C   -0.261342
     9  C   -0.146447
    10  C   -0.051251
    11  N   -0.300626
    12  N   -0.353169
    13  C   -0.200445
    14  C   -0.200466
    15  C   -0.193757
    16  C   -0.193724
    17  H    0.167675
    18  H    0.188843
    19  H    0.184214
    20  H    0.182784
    21  H    0.187519
    22  H    0.168296
    23  H    0.502792
    24  H    0.198769
    25  H    0.202774
    26  H    0.203186
    27  H    0.198767
    28  H    0.202768
    29  H    0.203193
    30  H    0.182690
    31  H    0.187399
    32  H    0.183708
    33  H    0.182689
    34  H    0.183711
    35  H    0.187403
 Sum of Mulliken charges =   1.00000

 Dipole moment (field-independent basis, Debye):
    X=             -3.9361    Y=             -1.2954    Z=              0.0000  Tot=              4.1437
 Quadrupole moment (field-independent basis, Debye-Ang):
   XX=            -62.3725   YY=            -64.1573   ZZ=            -91.2561
   XY=              2.4642   XZ=             -0.0003   YZ=             -0.0002

  Exact polarizability: 193.606  -0.735 210.444  -0.001  -0.002 108.792
 Approx polarizability: 295.260  -1.115 356.339  -0.001  -0.005 161.436

                      1                      2                      3
                      A                      A                      A
 Frequencies --     26.3017                89.1633               130.0370
 Red. masses --      3.4949                 2.7440                 3.2905
 Frc consts  --      0.0014                 0.0129                 0.0328
 IR Inten    --      0.0502                 0.1691                 0.4027

                      4                      5                      6
                      A                      A                      A
 Frequencies --    146.4353               168.6272               176.9841
 Red. masses --      2.3594                 2.6795                 3.2821
 Frc consts  --      0.0298                 0.0449                 0.0606
 IR Inten    --      0.1191                26.3161                 3.9159

                      7                      8                      9
                      A                      A                      A
 Frequencies --    190.3000               223.0790               227.8001
 Red. masses --      3.6575                 1.1151                 1.4108
 Frc consts  --      0.0780                 0.0327                 0.0431
 IR Inten    --      0.1723                 0.0402                 0.5336

                     10                     11                     12
                      A                      A                      A
 Frequencies --    241.9681               260.0146               262.3502
 Red. masses --      1.0738                 2.4407                 1.1225
 Frc consts  --      0.0370                 0.0972                 0.0455
 IR Inten    --      0.0321                 1.5717                 2.8262

                     13                     14                     15
                      A                      A                      A
 Frequencies --    273.5295               319.5055               320.8767
 Red. masses --      2.1330                 2.6626                 3.3457
 Frc consts  --      0.0940                 0.1601                 0.2030
 IR Inten    --      0.1393                 3.9025                 0.1139

                     16                     17                     18
                      A                      A                      A
 Frequencies --    381.1700               427.9005               447.0816
 Red. masses --      3.6821                 3.0584                 2.9788
 Frc consts  --      0.3152                 0.3299                 0.3508
 IR Inten    --     12.9975                51.3240                 0.3239

                     19                     20                     21
                      A                      A                      A
 Frequencies --    474.6473               502.0699               530.4105
 Red. masses --      3.3573                 5.0393                 4.2290
 Frc consts  --      0.4456                 0.7484                 0.7010
 IR Inten    --      0.4932                43.0550                24.4254

                     22                     23                     24
                      A                      A                      A
 Frequencies --    538.1227               538.1639               570.7438
 Red. masses --      3.5817                 4.8478                 3.8904
 Frc consts  --      0.6111                 0.8272                 0.7467
 IR Inten    --      0.0124                 9.2868                 2.6985

                     25                     26                     27
                      A                      A                      A
 Frequencies --    644.7734               667.9587               676.6018
 Red. masses --      4.1015                 3.0984                 3.4801
 Frc consts  --      1.0046                 0.8145                 0.9387
 IR Inten    --      0.1083                 0.0788               124.2184

                     28                     29                     30
                      A                      A                      A
 Frequencies --    776.4604               779.4004               786.7508
 Red. masses --      4.7074                 2.2123                 1.2946
 Frc consts  --      1.6721                 0.7918                 0.4721
 IR Inten    --      3.4690                62.3345                 0.2737

                     31                     32                     33
                      A                      A                      A
 Frequencies --    796.8927               843.6476               890.3522
 Red. masses --      5.2323                 2.1849                 3.7409
 Frc consts  --      1.9577                 0.9162                 1.7472
 IR Inten    --      0.4915                34.8835               114.8763

                     34                     35                     36
                      A                      A                      A
 Frequencies --    927.9884               928.4728               946.2091
 Red. masses --      1.3748                 3.6878                 1.4422
 Frc consts  --      0.6975                 1.8731                 0.7608
 IR Inten    --      0.1416                41.1763                 1.9197

                     37                     38                     39
                      A                      A                      A
 Frequencies --    998.6410              1009.8725              1019.3786
 Red. masses --      1.3276                 1.3435                 3.0556
 Frc consts  --      0.7801                 0.8073                 1.8708
 IR Inten    --      0.0055                 0.4393                64.2536

                     40                     41                     42
                      A                      A                      A
 Frequencies --   1033.4559              1048.8761              1050.8183
 Red. masses --      1.8633                 1.6863                 3.3550
 Frc consts  --      1.1725                 1.0930                 2.1827
 IR Inten    --     11.5728                14.5598                11.6278

                     43                     44                     45
                      A                      A                      A
 Frequencies --   1087.5063              1103.7419              1108.5196
 Red. masses --      1.2187                 1.8264                 1.2509
 Frc consts  --      0.8492                 1.3109                 0.9056
 IR Inten    --      0.8176                86.6492                 0.9373

                     46                     47                     48
                      A                      A                      A
 Frequencies --   1115.6497              1168.5735              1189.4024
 Red. masses --      1.7905                 1.3527                 1.4172
 Frc consts  --      1.3130                 1.0883                 1.1813
 IR Inten    --      2.3935               145.4934                 3.0253

                     49                     50                     51
                      A                      A                      A
 Frequencies --   1193.2899              1194.8753              1208.2222
 Red. masses --      2.4314                 1.2843                 1.3520
 Frc consts  --      2.0399                 1.0804                 1.1629
 IR Inten    --      6.7155                30.0001                28.6995

                     52                     53                     54
                      A                      A                      A
 Frequencies --   1210.9545              1223.1381              1239.2775
 Red. masses --      3.1107                 1.4533                 1.7022
 Frc consts  --      2.6876                 1.2811                 1.5403
 IR Inten    --      9.8160                71.6033                43.0910

                     55                     56                     57
                      A                      A                      A
 Frequencies --   1257.0590              1288.3766              1308.7782
 Red. masses --      1.9553                 2.4263                 2.4709
 Frc consts  --      1.8205                 2.3729                 2.4937
 IR Inten    --      5.4890                 3.3768                26.2589

                     58                     59                     60
                      A                      A                      A
 Frequencies --   1355.3009              1405.6120              1422.2816
 Red. masses --      1.7234                 4.2018                 3.4043
 Frc consts  --      1.8651                 4.8912                 4.0575
 IR Inten    --    381.2118                10.4861                27.4755

                     61                     62                     63
                      A                      A                      A
 Frequencies --   1422.6045              1440.0687              1444.7478
 Red. masses --      3.0383                 1.1448                 1.1433
 Frc consts  --      3.6229                 1.3988                 1.4060
 IR Inten    --     53.8390                 0.5698                10.1980

                     64                     65                     66
                      A                      A                      A
 Frequencies --   1472.8974              1477.2254              1478.4164
 Red. masses --      1.4862                 1.0408                 1.4423
 Frc consts  --      1.8996                 1.3381                 1.8574
 IR Inten    --      1.0462                 0.0355                 2.7602

                     67                     68                     69
                      A                      A                      A
 Frequencies --   1486.6567              1488.4986              1491.7010
 Red. masses --      1.0475                 1.2102                 1.0429
 Frc consts  --      1.3640                 1.5799                 1.3673
 IR Inten    --      3.1805                 3.2694                 2.9167

                     70                     71                     72
                      A                      A                      A
 Frequencies --   1499.8526              1505.5589              1507.6238
 Red. masses --      1.0429                 1.0904                 1.3532
 Frc consts  --      1.3823                 1.4562                 1.8121
 IR Inten    --     14.9563                21.2503                 4.1891

                     73                     74                     75
                      A                      A                      A
 Frequencies --   1512.1195              1520.2387              1531.6780
 Red. masses --      1.3694                 1.0846                 1.6910
 Frc consts  --      1.8448                 1.4768                 2.3374
 IR Inten    --     34.5097                29.9770               347.9582

                     76                     77                     78
                      A                      A                      A
 Frequencies --   1582.5851              1639.0160              1667.4078
 Red. masses --      2.6699                 7.0757                 5.1299
 Frc consts  --      3.9398                11.1992                 8.4032
 IR Inten    --    188.7283                 2.9416                63.2722

                     79                     80                     81
                      A                      A                      A
 Frequencies --   1690.2297              1696.3685              1908.6218
 Red. masses --      6.8136                 1.0799                 1.1044
 Frc consts  --     11.4689                 1.8310                 2.3703
 IR Inten    --     21.2438                 3.2553               489.6794

                     82                     83                     84
                      A                      A                      A
 Frequencies --   3050.5203              3053.8095              3081.8420
 Red. masses --      1.0353                 1.0364                 1.0316
 Frc consts  --      5.6761                 5.6947                 5.7728
 IR Inten    --     18.2368                20.2230                 6.6267

                     85                     86                     87
                      A                      A                      A
 Frequencies --   3084.9632              3134.8602              3135.3438
 Red. masses --      1.0325                 1.1008                 1.1023
 Frc consts  --      5.7894                 6.3740                 6.3844
 IR Inten    --      7.2218                18.9045                 0.9110

                     88                     89                     90
                      A                      A                      A
 Frequencies --   3167.1308              3168.7789              3178.0493
 Red. masses --      1.1053                 1.1057                 1.1076
 Frc consts  --      6.5322                 6.5414                 6.5909
 IR Inten    --      3.4528                15.3852                 0.0007

                     91                     92                     93
                      A                      A                      A
 Frequencies --   3178.8848              3192.4993              3193.5980
 Red. masses --      1.1066                 1.1065                 1.1073
 Frc consts  --      6.5883                 6.6447                 6.6537
 IR Inten    --      6.0604                 0.9370                 4.8330

                     94                     95                     96
                      A                      A                      A
 Frequencies --   3210.5100              3210.9290              3215.8258
 Red. masses --      1.0894                 1.0884                 1.0915
 Frc consts  --      6.6156                 6.6117                 6.6503
 IR Inten    --      2.6794                 2.1460                 0.0639

                     97                     98                     99
                      A                      A                      A
 Frequencies --   3217.4489              3234.4866              3236.9430
 Red. masses --      1.0911                 1.0977                 1.0973
 Frc consts  --      6.6548                 6.7660                 6.7741
 IR Inten    --      3.4720                 1.4348                 0.8019

 - Thermochemistry -
 -------------------
 Temperature   298.150 Kelvin.  Pressure   1.00000 Atm.
 Atom     1 has atomic number  6 and mass  12.00000

 Molecular mass:   215.15482 amu.
 Principal axes and moments of inertia in atomic units:
                           1         2         3
     Eigenvalues --  2797.694002976.633305041.35082
           X            1.00000   0.00223   0.00001
           Y           -0.00223   1.00000   0.00001
           Z           -0.00001  -0.00001   1.00000
 This molecule is an asymmetric top.
 Rotational symmetry number  1.
 Warning -- assumption of classical behavior for rotation
           may cause significant error
 Rotational temperatures (Kelvin)      0.03096     0.02910     0.01718
 Rotational constants (GHZ):           0.64508     0.60630     0.35799
 Zero-point vibrational energy     806192.9 (Joules/Mol)
                                  192.68473 (Kcal/Mol)
 Warning -- explicit consideration of  24 degrees of freedom as
           vibrations may cause significant error
 Vibrational temperatures:     37.84   128.29   187.09   210.69   242.62
          (Kelvin)            254.64   273.80   320.96   327.75   348.14
                              374.10   377.46   393.55   459.70   461.67
                              548.42   615.65   643.25   682.91   722.37
                              763.14   774.24   774.30   821.17   927.68
                              961.04   973.48  1117.15  1121.38  1131.96
                             1146.55  1213.82  1281.02  1335.17  1335.86
                             1361.38  1436.82  1452.98  1466.66  1486.91
                             1509.10  1511.89  1564.68  1588.04  1594.91
                             1605.17  1681.31  1711.28  1716.88  1719.16
                             1738.36  1742.29  1759.82  1783.04  1808.63
                             1853.68  1883.04  1949.97  2022.36  2046.34
                             2046.81  2071.94  2078.67  2119.17  2125.40
                             2127.11  2138.96  2141.61  2146.22  2157.95
                             2166.16  2169.13  2175.60  2187.28  2203.74
                             2276.98  2358.18  2399.02  2431.86  2440.69
                             2746.08  4389.01  4393.75  4434.08  4438.57
                             4510.36  4511.05  4556.79  4559.16  4572.50
                             4573.70  4593.29  4594.87  4619.20  4619.80
                             4626.85  4629.19  4653.70  4657.23

 Zero-point correction=                           0.307063 (Hartree/Particle)
 Thermal correction to Energy=                    0.322062
 Thermal correction to Enthalpy=                  0.323006
 Thermal correction to Gibbs Free Energy=         0.265954
 Sum of electronic and zero-point Energies=           -653.782153
 Sum of electronic and thermal Energies=              -653.767154
 Sum of electronic and thermal Enthalpies=            -653.766210
 Sum of electronic and thermal Free Energies=         -653.823261

                     E (Thermal)             CV                S
                      KCal/Mol        Cal/Mol-Kelvin    Cal/Mol-Kelvin
 Total                  202.097             59.560            120.075
 Electronic               0.000              0.000              0.000
 Translational            0.889              2.981             42.002
 Rotational               0.889              2.981             32.107
 Vibrational            200.319             53.598             45.966
 Vibration     1          0.593              1.985              6.090
 Vibration     2          0.602              1.957              3.678
 Vibration     3          0.612              1.923              2.946
 Vibration     4          0.617              1.907              2.718
 Vibration     5          0.625              1.881              2.451
 Vibration     6          0.628              1.871              2.360
 Vibration     7          0.634              1.853              2.225
 Vibration     8          0.649              1.806              1.934
 Vibration     9          0.651              1.799              1.896
 Vibration    10          0.658              1.776              1.788
 Vibration    11          0.668              1.746              1.662
 Vibration    12          0.670              1.742              1.646
 Vibration    13          0.676              1.722              1.574
 Vibration    14          0.705              1.636              1.313
 Vibration    15          0.706              1.634              1.306
 Vibration    16          0.751              1.510              1.035
 Vibration    17          0.789              1.410              0.866
 Vibration    18          0.806              1.367              0.805
 Vibration    19          0.831              1.306              0.725
 Vibration    20          0.857              1.245              0.653
 Vibration    21          0.885              1.183              0.586
 Vibration    22          0.893              1.166              0.569
 Vibration    23          0.893              1.166              0.569
 Vibration    24          0.927              1.095              0.503

 Optimization completed.
    -- Stationary point found.
 Normal termination of Gaussian 09 at Thu Dec 19 10:58:08 2024.
