 Gaussian 09, Revision E.01,
 Gaussian 09:  ES64L-G09RevE.01 30-Nov-2015

 -------------------------------------------------------
 # opt freq b3pw91/6-31+g(d,p) EmpiricalDispersion=GD3BJ
 -------------------------------------------------------

 ----------
 [No Title]
 ----------
 Symbolic Z-matrix:
 Charge =  0 Multiplicity = 1

 SCF Done:  E(RB3PW91) =  -653.679017215     A.U. after   14 cycles
 SCF Done:  E(RB3PW91) =  -653.674541716     A.U. after   13 cycles
 SCF Done:  E(RB3PW91) =  -653.679192731     A.U. after   11 cycles
 SCF Done:  E(RB3PW91) =  -653.679263915     A.U. after   11 cycles
 SCF Done:  E(RB3PW91) =  -653.679290143     A.U. after   11 cycles
 SCF Done:  E(RB3PW91) =  -653.679304111     A.U. after   11 cycles
 SCF Done:  E(RB3PW91) =  -653.679317853     A.U. after   11 cycles
 SCF Done:  E(RB3PW91) =  -653.679320650     A.U. after   10 cycles
 SCF Done:  E(RB3PW91) =  -653.679321185     A.U. after   10 cycles
 SCF Done:  E(RB3PW91) =  -653.679321631     A.U. after   10 cycles
 SCF Done:  E(RB3PW91) =  -653.679321669     A.U. after    8 cycles
 Optimization completed.
    -- Stationary point found.
 Normal termination of Gaussian 09 at Thu Dec 19 10:36:11 2024.

 ----------------------------------------------------------------------
 #N Geom=AllCheck Guess=TCheck SCRF=Check GenChk RB3PW91/6-31+G(d,p) Fr
 eq
 ----------------------------------------------------------------------

 Structure from the checkpoint file:  "B3PW91D3BJDMAN.chk"
 ----------
 [No Title]
 ----------
 Charge =  0 Multiplicity = 1

                         Standard orientation:
 ---------------------------------------------------------------------
 Center     Atomic      Atomic             Coordinates (Angstroms)
 Number     Number       Type             X           Y           Z
 ---------------------------------------------------------------------
      1          6           0        0.677787   -2.432093   -0.223327
      2          6           0        2.076807   -2.391250   -0.370068
      3          6           0        2.750205   -1.207312   -0.207555
      4          6           0        2.035600    0.000191   -0.000003
      5          6           0        0.600468    0.000055   -0.000007
      6          6           0       -0.064962   -1.282795    0.016181
      7          6           0        2.749974    1.207831    0.207556
      8          6           0        2.076349    2.391638    0.370074
      9          6           0        0.677321    2.432214    0.223332
     10          6           0       -0.065208    1.282777   -0.016189
     11          7           0       -1.438703   -1.367957    0.285563
     12          7           0       -1.438965    1.367681   -0.285570
     13          6           0       -1.888739   -0.827321    1.558059
     14          6           0       -2.126655   -2.587723   -0.063892
     15          6           0       -2.127153    2.587304    0.063919
     16          6           0       -1.888896    0.826997   -1.558082
     17          1           0        0.183506   -3.396463   -0.230047
     18          1           0        2.619925   -3.315087   -0.548546
     19          1           0        3.835374   -1.171270   -0.239983
     20          1           0        3.835149    1.171995    0.239988
     21          1           0        2.619290    3.315578    0.548560
     22          1           0        0.182857    3.396490    0.230058
     23          1           0       -1.269511    0.016804    1.854523
     24          1           0       -2.923425   -0.478694    1.472648
     25          1           0       -1.836817   -1.593021    2.351635
     26          1           0       -1.887161   -2.876778   -1.090903
     27          1           0       -1.892151   -3.436496    0.604602
     28          1           0       -3.204802   -2.407831   -0.001530
     29          1           0       -1.887718    2.876375    1.090939
     30          1           0       -1.892811    3.436141   -0.604550
     31          1           0       -3.205266    2.407205    0.001549
     32          1           0       -1.269505   -0.016998   -1.854574
     33          1           0       -2.923515    0.478167   -1.472683
     34          1           0       -1.837123    1.592734   -2.351633
 ---------------------------------------------------------------------

 SCF Done:  E(RB3PW91) =  -653.679321669     A.U. after    2 cycles

 The electronic state is 1-A.
 Alpha  occ. eigenvalues --  -14.33696 -14.33696 -10.21589 -10.21589 -10.19897
 Alpha  occ. eigenvalues --  -10.19897 -10.19226 -10.19225 -10.18707 -10.18542
 Alpha  occ. eigenvalues --  -10.17617 -10.17617 -10.17029 -10.17029 -10.16925
 Alpha  occ. eigenvalues --  -10.16924  -0.95860  -0.94185  -0.86493  -0.81743
 Alpha  occ. eigenvalues --   -0.76935  -0.74655  -0.72809  -0.71697  -0.71422
 Alpha  occ. eigenvalues --   -0.65756  -0.65693  -0.61316  -0.60086  -0.56144
 Alpha  occ. eigenvalues --   -0.52261  -0.51418  -0.50402  -0.48302  -0.47549
 Alpha  occ. eigenvalues --   -0.46811  -0.46139  -0.45454  -0.44452  -0.42428
 Alpha  occ. eigenvalues --   -0.41097  -0.40664  -0.39849  -0.39552  -0.39318
 Alpha  occ. eigenvalues --   -0.38230  -0.38173  -0.37390  -0.37241  -0.36913
 Alpha  occ. eigenvalues --   -0.34311  -0.33479  -0.32867  -0.29169  -0.26137
 Alpha  occ. eigenvalues --   -0.24447  -0.20276  -0.18772
 Alpha virt. eigenvalues --   -0.03619  -0.01599   0.00962   0.01884   0.02554
 Alpha virt. eigenvalues --    0.02605   0.03698   0.03912   0.04077   0.04670
 Alpha virt. eigenvalues --    0.05841   0.06012   0.06043   0.06519   0.06899

 Mulliken charges:
               1
     1  C   -0.344907
     2  C   -0.306315
     3  C   -0.371479
     4  C    0.195332
     5  C    0.070670
     6  C   -0.006556
     7  C   -0.371474
     8  C   -0.306310
     9  C   -0.344883
    10  C   -0.006555
    11  N    0.075482
    12  N    0.075474
    13  C   -0.249139
    14  C   -0.289327
    15  C   -0.289326
    16  C   -0.249136
    17  H    0.138249
    18  H    0.146539
    19  H    0.144634
    20  H    0.144634
    21  H    0.146539
    22  H    0.138249
    23  H    0.173107
    24  H    0.149068
    25  H    0.139543
    26  H    0.165260
    27  H    0.148709
    28  H    0.154114
    29  H    0.165261
    30  H    0.148708
    31  H    0.154115
    32  H    0.173108
    33  H    0.149069
    34  H    0.139543
 Sum of Mulliken charges =  -0.00000

 Dipole moment (field-independent basis, Debye):
    X=             -1.9062    Y=             -0.0002    Z=              0.0000  Tot=              1.9062
 Quadrupole moment (field-independent basis, Debye-Ang):
   XX=            -89.7138   YY=            -89.3169   ZZ=           -100.7688
   XY=             -0.0000   XZ=             -0.0001   YZ=              1.6376

  Exact polarizability: 220.996  -0.000 223.658  -0.001   6.472 121.739
 Approx polarizability: 349.553  -0.001 360.628  -0.002  21.763 181.642

                      1                      2                      3
                      A                      A                      A
 Frequencies --     57.8681                72.4905                83.5868
 Red. masses --      3.8112                 1.6590                 1.9577
 Frc consts  --      0.0075                 0.0051                 0.0081
 IR Inten    --      0.8846                 4.7239                 0.1373

                      4                      5                      6
                      A                      A                      A
 Frequencies --    124.0399               125.9678               145.1934
 Red. masses --      2.8421                 3.0090                 2.8469
 Frc consts  --      0.0258                 0.0281                 0.0354
 IR Inten    --      1.5690                 0.2419                 0.2380

                      7                      8                      9
                      A                      A                      A
 Frequencies --    171.5430               211.3984               249.3737
 Red. masses --      2.0971                 2.3037                 1.6951
 Frc consts  --      0.0364                 0.0607                 0.0621
 IR Inten    --      1.0005                 0.0009                 1.1030

                     10                     11                     12
                      A                      A                      A
 Frequencies --    274.3911               302.1650               315.3762
 Red. masses --      1.7737                 1.5104                 1.5367
 Frc consts  --      0.0787                 0.0812                 0.0901
 IR Inten    --      4.2939                 3.6408                 1.8045

                     13                     14                     15
                      A                      A                      A
 Frequencies --    318.3386               332.1675               355.8693
 Red. masses --      2.2989                 2.0606                 2.5583
 Frc consts  --      0.1373                 0.1340                 0.1909
 IR Inten    --      4.0947                 0.2713                 1.1922

                     16                     17                     18
                      A                      A                      A
 Frequencies --    365.0751               386.6198               449.6810
 Red. masses --      3.4093                 2.7266                 2.9381
 Frc consts  --      0.2677                 0.2401                 0.3500
 IR Inten    --      4.1020                 2.2059                 1.1441

                     19                     20                     21
                      A                      A                      A
 Frequencies --    477.9816               482.0267               533.3953
 Red. masses --      4.5149                 3.5220                 3.7623
 Frc consts  --      0.6077                 0.4822                 0.6307
 IR Inten    --      6.1023                 2.7811                 1.8765

                     22                     23                     24
                      A                      A                      A
 Frequencies --    535.0782               545.5639               549.1465
 Red. masses --      3.9847                 4.0966                 5.9839
 Frc consts  --      0.6722                 0.7184                 1.0632
 IR Inten    --      5.2951                 0.0475                 1.5645

                     25                     26                     27
                      A                      A                      A
 Frequencies --    640.6565               651.7860               674.6488
 Red. masses --      4.1360                 3.9225                 3.0885
 Frc consts  --      1.0002                 0.9818                 0.8282
 IR Inten    --      1.7507                 8.8233                 8.7468

                     28                     29                     30
                      A                      A                      A
 Frequencies --    763.7906               769.2828               777.5290
 Red. masses --      1.3314                 1.7960                 5.1302
 Frc consts  --      0.4576                 0.6262                 1.8273
 IR Inten    --      0.2471                65.2941                 0.1466

                     31                     32                     33
                      A                      A                      A
 Frequencies --    794.3201               823.6176               869.8313
 Red. masses --      5.1785                 2.9089                 1.4351
 Frc consts  --      1.9250                 1.1626                 0.6398
 IR Inten    --      2.9901                50.6957                 0.4802

                     34                     35                     36
                      A                      A                      A
 Frequencies --    887.5495               921.3423               967.4265
 Red. masses --      1.5061                 4.2231                 1.2891
 Frc consts  --      0.6990                 2.1121                 0.7109
 IR Inten    --      2.9122                 2.4143                 0.6024

                     37                     38                     39
                      A                      A                      A
 Frequencies --    968.1493               976.9619              1062.1840
 Red. masses --      3.5291                 1.3095                 2.4270
 Frc consts  --      1.9490                 0.7364                 1.6133
 IR Inten    --     32.1492                 0.4992                87.9028

                     40                     41                     42
                      A                      A                      A
 Frequencies --   1066.6996              1086.4306              1086.6547
 Red. masses --      3.8367                 1.3663                 1.3713
 Frc consts  --      2.5721                 0.9502                 0.9541
 IR Inten    --     29.7680                 8.9149                13.9721

                     43                     44                     45
                      A                      A                      A
 Frequencies --   1113.0091              1115.1272              1131.0247
 Red. masses --      1.2841                 1.3169                 1.7561
 Frc consts  --      0.9372                 0.9649                 1.3236
 IR Inten    --     10.1396                 5.0502                 0.0791

                     46                     47                     48
                      A                      A                      A
 Frequencies --   1138.6482              1159.3899              1161.6138
 Red. masses --      1.6144                 1.4404                 1.4374
 Frc consts  --      1.2333                 1.1408                 1.1428
 IR Inten    --      3.7656                 1.3901                49.2184

                     49                     50                     51
                      A                      A                      A
 Frequencies --   1184.7780              1192.2906              1224.9086
 Red. masses --      1.2661                 1.2405                 1.5530
 Frc consts  --      1.0471                 1.0390                 1.3729
 IR Inten    --      0.6407                 2.1565                11.8307

                     52                     53                     54
                      A                      A                      A
 Frequencies --   1237.7497              1238.5829              1265.9093
 Red. masses --      2.8458                 1.8138                 4.0733
 Frc consts  --      2.5688                 1.6394                 3.8459
 IR Inten    --     15.3409                13.4808                 5.5112

                     55                     56                     57
                      A                      A                      A
 Frequencies --   1266.8809              1364.3020              1365.2344
 Red. masses --      2.9610                 1.9445                 3.4853
 Frc consts  --      2.8000                 2.1324                 3.8274
 IR Inten    --     33.8681                25.0549                15.8212

                     58                     59                     60
                      A                      A                      A
 Frequencies --   1398.9527              1404.6588              1431.1624
 Red. masses --      3.7903                 7.4286                 2.7356
 Frc consts  --      4.3704                 8.6358                 3.3013
 IR Inten    --     16.4531                13.6074                84.6052

                     61                     62                     63
                      A                      A                      A
 Frequencies --   1443.3600              1445.8023              1462.4140
 Red. masses --      1.1566                 1.2515                 1.5804
 Frc consts  --      1.4196                 1.5413                 1.9914
 IR Inten    --      0.6517                10.2329                16.4794

                     64                     65                     66
                      A                      A                      A
 Frequencies --   1467.6575              1473.2207              1476.7244
 Red. masses --      1.3406                 1.0713                 1.0734
 Frc consts  --      1.7014                 1.3699                 1.3792
 IR Inten    --      3.0849                 2.9399                 6.6629

                     67                     68                     69
                      A                      A                      A
 Frequencies --   1479.5661              1487.8016              1491.7209
 Red. masses --      1.4361                 1.0901                 1.0534
 Frc consts  --      1.8522                 1.4217                 1.3810
 IR Inten    --      8.0551                 6.6896                34.6864

                     70                     71                     72
                      A                      A                      A
 Frequencies --   1494.9436              1500.2693              1508.7855
 Red. masses --      1.0964                 1.0598                 1.5725
 Frc consts  --      1.4436                 1.4054                 2.1091
 IR Inten    --     17.9424                 1.6364                16.0230

                     73                     74                     75
                      A                      A                      A
 Frequencies --   1525.6081              1528.8145              1566.2553
 Red. masses --      1.2448                 1.1676                 4.1741
 Frc consts  --      1.7070                 1.6078                 6.0330
 IR Inten    --     25.0969                46.7610                34.4581

                     76                     77                     78
                      A                      A                      A
 Frequencies --   1638.1629              1652.0634              1666.8352
 Red. masses --      5.9426                 5.8546                 6.3417
 Frc consts  --      9.3959                 9.4147                10.3810
 IR Inten    --    237.0294                 2.7488                15.3287

                     79                     80                     81
                      A                      A                      A
 Frequencies --   2954.1767              2954.6109              2971.5915
 Red. masses --      1.0578                 1.0576                 1.0577
 Frc consts  --      5.4389                 5.4399                 5.5029
 IR Inten    --    182.6983                20.9432               249.5652

                     82                     83                     84
                      A                      A                      A
 Frequencies --   2973.4561              3081.3156              3081.7946
 Red. masses --      1.0574                 1.0749                 1.0751
 Frc consts  --      5.5085                 6.0130                 6.0160
 IR Inten    --     59.2132                20.0806                47.3735

                     85                     86                     87
                      A                      A                      A
 Frequencies --   3086.1986              3087.1184              3137.2684
 Red. masses --      1.0840                 1.0838                 1.1029
 Frc consts  --      6.0829                 6.0858                 6.3958
 IR Inten    --     62.6599                21.4471                15.0785

                     88                     89                     90
                      A                      A                      A
 Frequencies --   3137.2802              3191.5730              3192.3299
 Red. masses --      1.1028                 1.0859                 1.0937
 Frc consts  --      6.3953                 6.5171                 6.5668
 IR Inten    --     21.6844                 5.8081                 3.1185

                     91                     92                     93
                      A                      A                      A
 Frequencies --   3192.7043              3192.7808              3209.1388
 Red. masses --      1.0954                 1.0878                 1.0955
 Frc consts  --      6.5786                 6.5334                 6.6471
 IR Inten    --      8.8203                 2.4282                 9.8007

                     94                     95                     96
                      A                      A                      A
 Frequencies --   3211.0514              3232.4192              3232.5135
 Red. masses --      1.0947                 1.0920                 1.0918
 Frc consts  --      6.6503                 6.7224                 6.7217
 IR Inten    --     45.0653                20.5143                 1.1066

 - Thermochemistry -
 -------------------
 Temperature   298.150 Kelvin.  Pressure   1.00000 Atm.
 Atom     1 has atomic number  6 and mass  12.00000

 Molecular mass:   214.14700 amu.
 Principal axes and moments of inertia in atomic units:
                           1         2         3
     Eigenvalues --  2791.560902857.254074987.58063
           X            1.00000  -0.00001   0.00000
           Y            0.00001   1.00000  -0.00157
           Z           -0.00000   0.00157   1.00000
 This molecule is an asymmetric top.
 Rotational symmetry number  1.
 Warning -- assumption of classical behavior for rotation
           may cause significant error
 Rotational temperatures (Kelvin)      0.03103     0.03031     0.01737
 Rotational constants (GHZ):           0.64650     0.63163     0.36185
 Zero-point vibrational energy     772050.4 (Joules/Mol)
                                  184.52447 (Kcal/Mol)
 Warning -- explicit consideration of  24 degrees of freedom as
           vibrations may cause significant error
 Vibrational temperatures:     83.26   104.30   120.26   178.47   181.24
          (Kelvin)            208.90   246.81   304.15   358.79   394.79
                              434.75   453.76   458.02   477.91   512.02
                              525.26   556.26   646.99   687.71   693.53
                              767.44   769.86   784.94   790.10   921.76
                              937.77   970.67  1098.92  1106.82  1118.69
                             1142.85  1185.00  1251.49  1276.98  1325.60
                             1391.91  1392.95  1405.63  1528.24  1534.74
                             1563.13  1563.45  1601.37  1604.42  1627.29
                             1638.26  1668.10  1671.30  1704.63  1715.44
                             1762.37  1780.84  1782.04  1821.36  1822.76
                             1962.92  1964.27  2012.78  2020.99  2059.12
                             2076.67  2080.18  2104.08  2111.63  2119.63
                             2124.67  2128.76  2140.61  2146.25  2150.89
                             2158.55  2170.80  2195.01  2199.62  2253.49
                             2356.95  2376.95  2398.20  4250.40  4251.02
                             4275.45  4278.13  4433.32  4434.01  4440.35
                             4441.67  4513.82  4513.84  4591.96  4593.04
                             4593.58  4593.69  4617.23  4619.98  4650.72
                             4650.86

 Zero-point correction=                           0.294058 (Hartree/Particle)
 Thermal correction to Energy=                    0.309097
 Thermal correction to Enthalpy=                  0.310041
 Thermal correction to Gibbs Free Energy=         0.252970
 Sum of electronic and zero-point Energies=           -653.385263
 Sum of electronic and thermal Energies=              -653.370225
 Sum of electronic and thermal Enthalpies=            -653.369280
 Sum of electronic and thermal Free Energies=         -653.426351

                     E (Thermal)             CV                S
                      KCal/Mol        Cal/Mol-Kelvin    Cal/Mol-Kelvin
 Total                  193.961             59.325            120.116
 Electronic               0.000              0.000              0.000
 Translational            0.889              2.981             41.988
 Rotational               0.889              2.981             32.053
 Vibrational            192.184             53.364             46.074
 Vibration     1          0.596              1.974              4.529
 Vibration     2          0.599              1.967              4.085
 Vibration     3          0.600              1.960              3.805
 Vibration     4          0.610              1.929              3.036
 Vibration     5          0.611              1.927              3.007
 Vibration     6          0.617              1.908              2.734
 Vibration     7          0.626              1.878              2.419
 Vibration     8          0.643              1.823              2.032
 Vibration     9          0.662              1.764              1.735
 Vibration    10          0.677              1.721              1.568
 Vibration    11          0.694              1.670              1.405
 Vibration    12          0.703              1.644              1.334
 Vibration    13          0.705              1.639              1.319
 Vibration    14          0.714              1.611              1.250
 Vibration    15          0.731              1.563              1.140
 Vibration    16          0.738              1.544              1.100
 Vibration    17          0.755              1.499              1.013
 Vibration    18          0.809              1.362              0.797
 Vibration    19          0.834              1.299              0.716
 Vibration    20          0.838              1.290              0.705
 Vibration    21          0.888              1.176              0.580
 Vibration    22          0.890              1.172              0.576
 Vibration    23          0.901              1.149              0.553
 Vibration    24          0.904              1.142              0.546

 Optimization completed.
    -- Stationary point found.
 Normal termination of Gaussian 09 at Thu Dec 19 10:41:49 2024.
