 Gaussian 09, Revision E.01,
 Gaussian 09:  ES64L-G09RevE.01 30-Nov-2015

 -----------------------------------------
 # opt freq cam-b3lyp/6-31+g(d,p) em=gd3bj
 -----------------------------------------

 ----------
 [No Title]
 ----------
 Symbolic Z-matrix:
 Charge =  1 Multiplicity = 1

 SCF Done:  E(RCAM-B3LYP) =  -653.916952028     A.U. after   15 cycles
 SCF Done:  E(RCAM-B3LYP) =  -653.917405158     A.U. after   11 cycles
 SCF Done:  E(RCAM-B3LYP) =  -653.917424300     A.U. after   11 cycles
 SCF Done:  E(RCAM-B3LYP) =  -653.917411597     A.U. after   11 cycles
 SCF Done:  E(RCAM-B3LYP) =  -653.917429184     A.U. after   10 cycles
 SCF Done:  E(RCAM-B3LYP) =  -653.917434047     A.U. after   10 cycles
 SCF Done:  E(RCAM-B3LYP) =  -653.917437398     A.U. after   10 cycles
 SCF Done:  E(RCAM-B3LYP) =  -653.917437996     A.U. after    9 cycles
 Optimization completed.
    -- Stationary point found.
 Normal termination of Gaussian 09 at Tue Jun 11 17:06:44 2024.

 ----------------------------------------------------------------------
 #N Geom=AllCheck Guess=TCheck SCRF=Check GenChk RCAM-B3LYP/6-31+G(d,p)
  Freq
 ----------------------------------------------------------------------

 Structure from the checkpoint file:  "camb3lypDMANyang.chk"
 ----------
 [No Title]
 ----------
 Charge =  1 Multiplicity = 1

                         Standard orientation:
 ---------------------------------------------------------------------
 Center     Atomic      Atomic             Coordinates (Angstroms)
 Number     Number       Type             X           Y           Z
 ---------------------------------------------------------------------
      1          6           0       -0.755794   -2.428257   -0.000038
      2          6           0       -2.164498   -2.386335   -0.000005
      3          6           0       -2.805190   -1.177702    0.000017
      4          6           0       -2.079235    0.039965    0.000017
      5          6           0       -0.652004    0.017367   -0.000008
      6          6           0       -0.033073   -1.267200   -0.000044
      7          6           0       -2.761215    1.282201    0.000044
      8          6           0       -2.069757    2.461862    0.000052
      9          6           0       -0.659964    2.448363    0.000046
     10          6           0        0.038494    1.269120    0.000020
     11          7           0        1.438448   -1.325285   -0.000102
     12          7           0        1.494948    1.268495    0.000051
     13          6           0        1.998644   -1.937653    1.234019
     14          6           0        1.998531   -1.937656   -1.234273
     15          6           0        2.064641    1.872004   -1.218455
     16          6           0        2.064576    1.871841    1.218669
     17          1           0       -0.252867   -3.389692   -0.000066
     18          1           0       -2.727680   -3.312129    0.000000
     19          1           0       -3.889195   -1.132712    0.000041
     20          1           0       -3.846063    1.278694    0.000063
     21          1           0       -2.595924    3.409564    0.000072
     22          1           0       -0.122471    3.390795    0.000068
     23          1           0        1.696423   -0.242377   -0.000124
     24          1           0        3.082891   -1.818893    1.224133
     25          1           0        1.575444   -1.431851    2.101077
     26          1           0        1.747370   -2.997802    1.274658
     27          1           0        3.082781   -1.818909   -1.224481
     28          1           0        1.575262   -1.431846   -2.101292
     29          1           0        1.747236   -2.997800   -1.274893
     30          1           0        1.628849    1.399123   -2.100037
     31          1           0        1.869675    2.948773   -1.270321
     32          1           0        3.145644    1.714891   -1.223599
     33          1           0        1.628743    1.398837    2.100164
     34          1           0        3.145580    1.714735    1.223847
     35          1           0        1.869597    2.948602    1.270671
 ---------------------------------------------------------------------

 SCF Done:  E(RCAM-B3LYP) =  -653.917437996     A.U. after    1 cycles

 The electronic state is 1-A.
 Alpha  occ. eigenvalues --  -14.64433 -14.57877 -10.45311 -10.44921 -10.44920
 Alpha  occ. eigenvalues --  -10.43844 -10.42340 -10.42020 -10.42019 -10.41301
 Alpha  occ. eigenvalues --  -10.41084 -10.40098 -10.39909 -10.39839 -10.39402
 Alpha  occ. eigenvalues --  -10.39330  -1.23002  -1.17073  -1.09550  -1.04257
 Alpha  occ. eigenvalues --   -0.99632  -0.96699  -0.96572  -0.94520  -0.93215
 Alpha  occ. eigenvalues --   -0.90506  -0.87060  -0.84445  -0.82323  -0.79495
 Alpha  occ. eigenvalues --   -0.75669  -0.73826  -0.72963  -0.70740  -0.70411
 Alpha  occ. eigenvalues --   -0.69357  -0.66843  -0.66692  -0.66192  -0.64145
 Alpha  occ. eigenvalues --   -0.63400  -0.63252  -0.61919  -0.61447  -0.60773
 Alpha  occ. eigenvalues --   -0.60366  -0.59321  -0.59280  -0.58673  -0.57525
 Alpha  occ. eigenvalues --   -0.57173  -0.54460  -0.53842  -0.52826  -0.48105
 Alpha  occ. eigenvalues --   -0.45051  -0.43472  -0.40346
 Alpha virt. eigenvalues --   -0.14075  -0.10914  -0.09134  -0.07205  -0.06949
 Alpha virt. eigenvalues --   -0.06454  -0.06154  -0.05413  -0.04879  -0.04280
 Alpha virt. eigenvalues --   -0.04060  -0.03956  -0.02850  -0.02420  -0.02089

 Mulliken charges:
               1
     1  C    0.001650
     2  C   -0.219123
     3  C   -0.030005
     4  C   -0.417565
     5  C   -0.005883
     6  C   -0.181338
     7  C   -0.053581
     8  C   -0.211124
     9  C   -0.002543
    10  C   -0.192985
    11  N   -0.402436
    12  N   -0.457753
    13  C   -0.130561
    14  C   -0.130566
    15  C   -0.124381
    16  C   -0.124413
    17  H    0.151190
    18  H    0.170085
    19  H    0.164944
    20  H    0.162899
    21  H    0.168456
    22  H    0.151907
    23  H    0.485829
    24  H    0.192896
    25  H    0.199235
    26  H    0.197218
    27  H    0.192896
    28  H    0.199239
    29  H    0.197216
    30  H    0.173429
    31  H    0.177651
    32  H    0.173219
    33  H    0.173426
    34  H    0.173218
    35  H    0.177653
 Sum of Mulliken charges =   1.00000

 Dipole moment (field-independent basis, Debye):
    X=              3.9822    Y=             -1.6956    Z=             -0.0001  Tot=              4.3282
 Quadrupole moment (field-independent basis, Debye-Ang):
   XX=            -63.9225   YY=            -65.2778   ZZ=            -92.2016
   XY=             -3.2017   XZ=             -0.0005   YZ=              0.0010

  Exact polarizability: 190.776   0.794 206.565  -0.001   0.002 108.981
 Approx polarizability: 225.869   0.742 263.175  -0.001   0.002 137.695

                      1                      2                      3
                      A                      A                      A
 Frequencies --     28.1994                84.9637               132.7450
 Red. masses --      3.5122                 2.6932                 3.3082
 Frc consts  --      0.0016                 0.0115                 0.0343
 IR Inten    --      0.0811                 0.1380                 0.4073

                      4                      5                      6
                      A                      A                      A
 Frequencies --    140.8019               169.3656               181.8099
 Red. masses --      2.3672                 2.7299                 3.1034
 Frc consts  --      0.0277                 0.0461                 0.0604
 IR Inten    --      0.2815                16.9209                 3.7120

                      7                      8                      9
                      A                      A                      A
 Frequencies --    195.5142               220.2826               228.3068
 Red. masses --      3.4820                 1.1432                 1.3534
 Frc consts  --      0.0784                 0.0327                 0.0416
 IR Inten    --      0.2989                 0.0951                 0.6478

                     10                     11                     12
                      A                      A                      A
 Frequencies --    240.2318               257.4659               261.0101
 Red. masses --      1.0880                 1.1999                 2.1185
 Frc consts  --      0.0370                 0.0469                 0.0850
 IR Inten    --      0.0219                 3.2882                 1.1876

                     13                     14                     15
                      A                      A                      A
 Frequencies --    276.2361               323.9828               326.6334
 Red. masses --      2.2989                 2.7418                 3.3179
 Frc consts  --      0.1034                 0.1696                 0.2086
 IR Inten    --      0.1226                 2.4332                 0.2003

                     16                     17                     18
                      A                      A                      A
 Frequencies --    388.3592               434.4679               451.9644
 Red. masses --      3.6643                 3.1425                 2.9216
 Frc consts  --      0.3256                 0.3495                 0.3516
 IR Inten    --     13.0213                26.7404                 0.3095

                     19                     20                     21
                      A                      A                      A
 Frequencies --    486.7635               506.9941               538.1854
 Red. masses --      3.2953                 5.3965                 4.0476
 Frc consts  --      0.4600                 0.8173                 0.6907
 IR Inten    --      0.5666                20.7906                16.6950

                     22                     23                     24
                      A                      A                      A
 Frequencies --    544.1703               547.0676               579.2342
 Red. masses --      5.1821                 3.5324                 3.8338
 Frc consts  --      0.9041                 0.6229                 0.7579
 IR Inten    --      2.1875                 0.0180                 4.2473

                     25                     26                     27
                      A                      A                      A
 Frequencies --    656.4272               680.1350               687.4770
 Red. masses --      3.9804                 2.9974                 3.5690
 Frc consts  --      1.0105                 0.8169                 0.9938
 IR Inten    --      0.0662                 0.1483                66.6484

                     28                     29                     30
                      A                      A                      A
 Frequencies --    784.8102               797.8842               802.4184
 Red. masses --      4.7385                 2.0035                 1.2980
 Frc consts  --      1.7196                 0.7515                 0.4924
 IR Inten    --      1.2986                68.2440                 0.3496

                     31                     32                     33
                      A                      A                      A
 Frequencies --    804.0936               866.4007               902.1929
 Red. masses --      5.2773                 2.4270                 3.9169
 Frc consts  --      2.0104                 1.0734                 1.8784
 IR Inten    --      0.5526                26.2735                44.5285

                     34                     35                     36
                      A                      A                      A
 Frequencies --    937.4037               950.8656               968.3907
 Red. masses --      3.6185                 1.3905                 1.4526
 Frc consts  --      1.8734                 0.7408                 0.8026
 IR Inten    --     34.4391                 0.1872                 1.7317

                     37                     38                     39
                      A                      A                      A
 Frequencies --   1023.9060              1035.0081              1035.0260
 Red. masses --      1.3505                 3.1687                 1.3728
 Frc consts  --      0.8342                 1.9999                 0.8665
 IR Inten    --      0.0049                34.3336                 0.0222

                     40                     41                     42
                      A                      A                      A
 Frequencies --   1041.0198              1059.9929              1060.9264
 Red. masses --      1.8570                 1.6642                 3.6095
 Frc consts  --      1.1857                 1.1017                 2.3937
 IR Inten    --     13.6249                15.2479                14.2384

                     43                     44                     45
                      A                      A                      A
 Frequencies --   1096.9422              1119.7776              1121.4794
 Red. masses --      1.2117                 2.0650                 1.2459
 Frc consts  --      0.8590                 1.5256                 0.9233
 IR Inten    --      0.5055                10.6341                 1.5132

                     46                     47                     48
                      A                      A                      A
 Frequencies --   1124.1610              1190.6589              1200.1089
 Red. masses --      1.7864                 1.2760                 1.3977
 Frc consts  --      1.3301                 1.0658                 1.1861
 IR Inten    --      2.8674                 0.3517                 3.3901

                     49                     50                     51
                      A                      A                      A
 Frequencies --   1204.2539              1208.6524              1220.1805
 Red. masses --      2.3365                 1.5948                 1.3083
 Frc consts  --      1.9965                 1.3726                 1.1477
 IR Inten    --      6.7983                 7.8467                19.8235

                     52                     53                     54
                      A                      A                      A
 Frequencies --   1226.9239              1240.1179              1251.3537
 Red. masses --      3.1440                 1.5642                 1.7507
 Frc consts  --      2.7885                 1.4173                 1.6152
 IR Inten    --     12.4674                31.4583                26.4791

                     55                     56                     57
                      A                      A                      A
 Frequencies --   1257.1653              1299.0649              1324.7143
 Red. masses --      1.8952                 2.2199                 2.4417
 Frc consts  --      1.7648                 2.2072                 2.5246
 IR Inten    --     30.1096                 0.9371                17.1996

                     58                     59                     60
                      A                      A                      A
 Frequencies --   1398.0430              1401.0037              1428.7525
 Red. masses --      3.5833                 2.2706                 5.3786
 Frc consts  --      4.1264                 2.6258                 6.4690
 IR Inten    --      2.9338               117.3296                 9.1170

                     61                     62                     63
                      A                      A                      A
 Frequencies --   1455.9713              1458.1200              1460.5414
 Red. masses --      1.1477                 1.3889                 1.1467
 Frc consts  --      1.4334                 1.7399                 1.4413
 IR Inten    --      1.1461                70.4983                 8.9059

                     64                     65                     66
                      A                      A                      A
 Frequencies --   1487.8155              1489.7600              1493.1276
 Red. masses --      1.4223                 1.0424                 1.4201
 Frc consts  --      1.8550                 1.3631                 1.8654
 IR Inten    --      0.7472                 0.0170                 4.1557

                     67                     68                     69
                      A                      A                      A
 Frequencies --   1498.8648              1502.8191              1505.3146
 Red. masses --      1.0488                 1.0431                 1.1103
 Frc consts  --      1.3883                 1.3880                 1.4823
 IR Inten    --      2.4781                 4.6510                 5.9497

                     70                     71                     72
                      A                      A                      A
 Frequencies --   1512.8341              1517.7656              1520.1811
 Red. masses --      1.0444                 1.0590                 1.1486
 Frc consts  --      1.4083                 1.4374                 1.5640
 IR Inten    --     13.7481                 5.5543                10.3278

                     73                     74                     75
                      A                      A                      A
 Frequencies --   1527.4554              1532.5820              1565.5072
 Red. masses --      1.7077                 1.2207                 2.6330
 Frc consts  --      2.3474                 1.6893                 3.8020
 IR Inten    --     16.7143                24.6911               204.0456

                     76                     77                     78
                      A                      A                      A
 Frequencies --   1618.1028              1667.0905              1686.8579
 Red. masses --      1.7464                 6.8561                 1.0894
 Frc consts  --      2.6941                11.2265                 1.8263
 IR Inten    --    300.7925                 2.6475                 5.5193

                     79                     80                     81
                      A                      A                      A
 Frequencies --   1701.5016              1722.4850              2089.2142
 Red. masses --      4.5369                 6.3289                 1.1192
 Frc consts  --      7.7388                11.0634                 2.8781
 IR Inten    --     51.8869                51.1643              1138.3603

                     82                     83                     84
                      A                      A                      A
 Frequencies --   3062.8187              3066.5004              3099.1100
 Red. masses --      1.0361                 1.0374                 1.0317
 Frc consts  --      5.7264                 5.7473                 5.8384
 IR Inten    --     17.2118                17.9770                 4.0485

                     85                     86                     87
                      A                      A                      A
 Frequencies --   3102.8633              3141.9403              3142.1126
 Red. masses --      1.0325                 1.1020                 1.1005
 Frc consts  --      5.8571                 6.4096                 6.4013
 IR Inten    --      4.5400                 1.2325                19.1611

                     88                     89                     90
                      A                      A                      A
 Frequencies --   3172.2983              3174.2691              3192.3621
 Red. masses --      1.1060                 1.1064                 1.1083
 Frc consts  --      6.5579                 6.5685                 6.6550
 IR Inten    --      3.7683                16.4169                 0.0054

                     91                     92                     93
                      A                      A                      A
 Frequencies --   3194.3872              3204.0513              3205.0451
 Red. masses --      1.1075                 1.1076                 1.1083
 Frc consts  --      6.6582                 6.6995                 6.7077
 IR Inten    --      4.7259                 0.5230                 2.5621

                     94                     95                     96
                      A                      A                      A
 Frequencies --   3222.3100              3222.7787              3226.8696
 Red. masses --      1.0898                 1.0893                 1.0923
 Frc consts  --      6.6672                 6.6662                 6.7014
 IR Inten    --      1.1228                 3.4281                 0.0242

                     97                     98                     99
                      A                      A                      A
 Frequencies --   3229.2443              3245.6531              3248.2225
 Red. masses --      1.0918                 1.0981                 1.0978
 Frc consts  --      6.7082                 6.8156                 6.8243
 IR Inten    --      2.7676                 0.7929                 0.3256

 - Thermochemistry -
 -------------------
 Temperature   298.150 Kelvin.  Pressure   1.00000 Atm.
 Atom     1 has atomic number  6 and mass  12.00000

 Molecular mass:   215.15482 amu.
 Principal axes and moments of inertia in atomic units:
                           1         2         3
     Eigenvalues --  2813.579482973.830305054.98429
           X            0.99999  -0.00340   0.00001
           Y            0.00340   0.99999  -0.00003
           Z           -0.00001   0.00003   1.00000
 This molecule is an asymmetric top.
 Rotational symmetry number  1.
 Warning -- assumption of classical behavior for rotation
           may cause significant error
 Rotational temperatures (Kelvin)      0.03078     0.02913     0.01713
 Rotational constants (GHZ):           0.64144     0.60687     0.35702
 Zero-point vibrational energy     814173.8 (Joules/Mol)
                                  194.59222 (Kcal/Mol)
 Warning -- explicit consideration of  24 degrees of freedom as
           vibrations may cause significant error
 Vibrational temperatures:     40.57   122.24   190.99   202.58   243.68
          (Kelvin)            261.58   281.30   316.94   328.48   345.64
                              370.44   375.53   397.44   466.14   469.95
                              558.76   625.10   650.28   700.34   729.45
                              774.33   782.94   787.11   833.39   944.45
                              978.56   989.12  1129.17  1147.98  1154.50
                             1156.91  1246.56  1298.05  1348.71  1368.08
                             1393.30  1473.17  1489.14  1489.17  1497.79
                             1525.09  1526.43  1578.25  1611.11  1613.56
                             1617.41  1713.09  1726.69  1732.65  1738.98
                             1755.57  1765.27  1784.25  1800.42  1808.78
                             1869.06  1905.97  2011.47  2015.73  2055.65
                             2094.82  2097.91  2101.39  2140.63  2143.43
                             2148.27  2156.53  2162.22  2165.81  2176.63
                             2183.72  2187.20  2197.66  2205.04  2252.41
                             2328.09  2398.57  2427.01  2448.08  2478.27
                             3005.91  4406.71  4412.00  4458.92  4464.32
                             4520.55  4520.79  4564.22  4567.06  4593.09
                             4596.00  4609.91  4611.34  4636.18  4636.85
                             4642.74  4646.16  4669.77  4673.46

 Zero-point correction=                           0.310102 (Hartree/Particle)
 Thermal correction to Energy=                    0.324957
 Thermal correction to Enthalpy=                  0.325901
 Thermal correction to Gibbs Free Energy=         0.269095
 Sum of electronic and zero-point Energies=           -653.607336
 Sum of electronic and thermal Energies=              -653.592481
 Sum of electronic and thermal Enthalpies=            -653.591537
 Sum of electronic and thermal Free Energies=         -653.648343

                     E (Thermal)             CV                S
                      KCal/Mol        Cal/Mol-Kelvin    Cal/Mol-Kelvin
 Total                  203.914             58.790            119.559
 Electronic               0.000              0.000              0.000
 Translational            0.889              2.981             42.002
 Rotational               0.889              2.981             32.114
 Vibrational            202.136             52.828             45.443
 Vibration     1          0.593              1.984              5.952
 Vibration     2          0.601              1.960              3.773
 Vibration     3          0.613              1.921              2.906
 Vibration     4          0.615              1.912              2.793
 Vibration     5          0.625              1.880              2.443
 Vibration     6          0.630              1.864              2.310
 Vibration     7          0.636              1.846              2.175
 Vibration     8          0.647              1.810              1.957
 Vibration     9          0.651              1.798              1.892
 Vibration    10          0.657              1.779              1.801
 Vibration    11          0.667              1.750              1.679
 Vibration    12          0.669              1.744              1.655
 Vibration    13          0.678              1.717              1.557
 Vibration    14          0.709              1.627              1.290
 Vibration    15          0.710              1.622              1.277
 Vibration    16          0.757              1.495              1.006
 Vibration    17          0.795              1.395              0.844
 Vibration    18          0.811              1.357              0.790
 Vibration    19          0.843              1.279              0.692
 Vibration    20          0.862              1.235              0.641
 Vibration    21          0.893              1.166              0.569
 Vibration    22          0.899              1.152              0.556
 Vibration    23          0.902              1.146              0.550
 Vibration    24          0.936              1.076              0.487

 Normal termination of Gaussian 09 at Tue Jun 11 17:25:03 2024.
