 Gaussian 09, Revision E.01,
 Gaussian 09:  ES64L-G09RevE.01 30-Nov-2015

 -----------------------------------------
 # opt freq cam-b3lyp/6-31+g(d,p) em=gd3bj
 -----------------------------------------

 ----------
 [No Title]
 ----------
 Symbolic Z-matrix:
 Charge =  0 Multiplicity = 1

 SCF Done:  E(RCAM-B3LYP) =  -653.511797261     A.U. after   16 cycles
 SCF Done:  E(RCAM-B3LYP) =  -653.512234290     A.U. after   13 cycles
 SCF Done:  E(RCAM-B3LYP) =  -653.511964864     A.U. after   13 cycles
 SCF Done:  E(RCAM-B3LYP) =  -653.512256888     A.U. after    8 cycles
 SCF Done:  E(RCAM-B3LYP) =  -653.512278428     A.U. after   12 cycles
 SCF Done:  E(RCAM-B3LYP) =  -653.512287317     A.U. after   11 cycles
 SCF Done:  E(RCAM-B3LYP) =  -653.512289337     A.U. after   11 cycles
 SCF Done:  E(RCAM-B3LYP) =  -653.512289589     A.U. after   11 cycles
 SCF Done:  E(RCAM-B3LYP) =  -653.512291248     A.U. after   10 cycles
 SCF Done:  E(RCAM-B3LYP) =  -653.512291520     A.U. after    9 cycles
 SCF Done:  E(RCAM-B3LYP) =  -653.512291553     A.U. after    9 cycles
 Optimization completed.
    -- Stationary point found.
 Normal termination of Gaussian 09 at Tue Jun 11 11:30:05 2024.

 ----------------------------------------------------------------------
 #N Geom=AllCheck Guess=TCheck SCRF=Check GenChk RCAM-B3LYP/6-31+G(d,p)
  Freq
 ----------------------------------------------------------------------

 Structure from the checkpoint file:  "camB3LYPDMAN.chk"
 ----------
 [No Title]
 ----------
 Charge =  0 Multiplicity = 1

                         Standard orientation:
 ---------------------------------------------------------------------
 Center     Atomic      Atomic             Coordinates (Angstroms)
 Number     Number       Type             X           Y           Z
 ---------------------------------------------------------------------
      1          6           0        0.683401    2.429904    0.203030
      2          6           0        2.084794    2.391228    0.332833
      3          6           0        2.749143    1.207856    0.186675
      4          6           0        2.029351   -0.000405    0.000006
      5          6           0        0.600778   -0.000116    0.000012
      6          6           0       -0.062300    1.285619   -0.008003
      7          6           0        2.748652   -1.208958   -0.186675
      8          6           0        2.083823   -2.392058   -0.332845
      9          6           0        0.682414   -2.430167   -0.203040
     10          6           0       -0.062821   -1.285583    0.008016
     11          7           0       -1.447709    1.376368   -0.247563
     12          7           0       -1.448266   -1.375779    0.247575
     13          6           0       -1.895985    0.909169   -1.551005
     14          6           0       -2.121853    2.592670    0.146712
     15          6           0       -2.122902   -2.591791   -0.146755
     16          6           0       -1.896350   -0.908464    1.551041
     17          1           0        0.191338    3.393803    0.211709
     18          1           0        2.630308    3.315753    0.493107
     19          1           0        3.833250    1.166746    0.217292
     20          1           0        3.832776   -1.168286   -0.217299
     21          1           0        2.628960   -3.316802   -0.493134
     22          1           0        0.189960   -3.393866   -0.211733
     23          1           0       -1.333022    0.031732   -1.858028
     24          1           0       -2.953523    0.633106   -1.501775
     25          1           0       -1.771252    1.692608   -2.317593
     26          1           0       -1.859633    2.856677    1.173666
     27          1           0       -1.897099    3.454673   -0.505665
     28          1           0       -3.201055    2.420185    0.102930
     29          1           0       -1.860792   -2.855854   -1.173723
     30          1           0       -1.898493   -3.453915    0.505581
     31          1           0       -3.202034   -2.418871   -0.102960
     32          1           0       -1.333026   -0.031277    1.858113
     33          1           0       -2.953775   -0.631964    1.501827
     34          1           0       -1.771940   -1.691997    2.317587
 ---------------------------------------------------------------------

 SCF Done:  E(RCAM-B3LYP) =  -653.512291553     A.U. after    1 cycles

 The electronic state is 1-A.
 Alpha  occ. eigenvalues --  -14.41136 -14.41136 -10.30077 -10.30077 -10.28257
 Alpha  occ. eigenvalues --  -10.28257 -10.27604 -10.27604 -10.27243 -10.27090
 Alpha  occ. eigenvalues --  -10.26214 -10.26214 -10.25550 -10.25548 -10.25521
 Alpha  occ. eigenvalues --  -10.25520  -1.03293  -1.01560  -0.94617  -0.89779
 Alpha  occ. eigenvalues --   -0.84663  -0.82407  -0.80371  -0.79038  -0.78778
 Alpha  occ. eigenvalues --   -0.72994  -0.72992  -0.68735  -0.67316  -0.63160
 Alpha  occ. eigenvalues --   -0.59131  -0.58110  -0.57327  -0.54904  -0.54309
 Alpha  occ. eigenvalues --   -0.53317  -0.52622  -0.52093  -0.50952  -0.48900
 Alpha  occ. eigenvalues --   -0.47778  -0.47139  -0.46230  -0.45895  -0.45537
 Alpha  occ. eigenvalues --   -0.44723  -0.44436  -0.43553  -0.43317  -0.43193
 Alpha  occ. eigenvalues --   -0.40370  -0.39766  -0.39158  -0.34895  -0.31701
 Alpha  occ. eigenvalues --   -0.29413  -0.25684  -0.23701
 Alpha virt. eigenvalues --    0.00632   0.02722   0.02921   0.03760   0.04242
 Alpha virt. eigenvalues --    0.04835   0.05512   0.05631   0.06404   0.07008
 Alpha virt. eigenvalues --    0.07719   0.07725   0.07726   0.08076   0.08766

 Mulliken charges:
               1
     1  C   -0.410240
     2  C   -0.323148
     3  C   -0.270034
     4  C    0.033903
     5  C    0.080117
     6  C    0.173908
     7  C   -0.270055
     8  C   -0.323117
     9  C   -0.410207
    10  C    0.173906
    11  N   -0.059821
    12  N   -0.059830
    13  C   -0.181674
    14  C   -0.240512
    15  C   -0.240511
    16  C   -0.181669
    17  H    0.121610
    18  H    0.129400
    19  H    0.126415
    20  H    0.126415
    21  H    0.129400
    22  H    0.121610
    23  H    0.164404
    24  H    0.138848
    25  H    0.132108
    26  H    0.155570
    27  H    0.141036
    28  H    0.145100
    29  H    0.155571
    30  H    0.141035
    31  H    0.145100
    32  H    0.164405
    33  H    0.138849
    34  H    0.132109
 Sum of Mulliken charges =   0.00000

 Dipole moment (field-independent basis, Debye):
    X=             -1.5272    Y=              0.0003    Z=             -0.0000  Tot=              1.5272
 Quadrupole moment (field-independent basis, Debye-Ang):
   XX=            -91.1220   YY=            -90.5112   ZZ=           -101.8605
   XY=              0.0001   XZ=              0.0003   YZ=              1.7436

  Exact polarizability: 213.904   0.001 218.501   0.001   6.111 120.595
 Approx polarizability: 253.545   0.003 266.400   0.002  12.756 151.824

                      1                      2                      3
                      A                      A                      A
 Frequencies --     52.3845               102.8432               122.1970
 Red. masses --      3.7744                 2.4578                 1.8771
 Frc consts  --      0.0061                 0.0153                 0.0165
 IR Inten    --      0.5583                 0.3874                 2.7677

                      4                      5                      6
                      A                      A                      A
 Frequencies --    128.4018               128.9435               156.0395
 Red. masses --      2.9459                 3.0250                 2.8342
 Frc consts  --      0.0286                 0.0296                 0.0407
 IR Inten    --      0.8430                 1.2450                 0.8278

                      7                      8                      9
                      A                      A                      A
 Frequencies --    179.9988               216.4951               249.2688
 Red. masses --      1.6738                 2.3169                 1.5297
 Frc consts  --      0.0320                 0.0640                 0.0560
 IR Inten    --      0.7570                 0.0058                 0.9042

                     10                     11                     12
                      A                      A                      A
 Frequencies --    272.2501               306.9062               316.8159
 Red. masses --      1.8269                 1.4295                 1.4153
 Frc consts  --      0.0798                 0.0793                 0.0837
 IR Inten    --      4.7798                 2.5631                 0.9456

                     13                     14                     15
                      A                      A                      A
 Frequencies --    323.6723               332.0455               359.5903
 Red. masses --      2.2559                 2.1518                 2.7980
 Frc consts  --      0.1392                 0.1398                 0.2132
 IR Inten    --      2.6685                 0.2352                 0.9310

                     16                     17                     18
                      A                      A                      A
 Frequencies --    376.5845               392.1466               452.5136
 Red. masses --      3.5050                 2.7519                 2.9154
 Frc consts  --      0.2929                 0.2493                 0.3517
 IR Inten    --      4.2678                 2.4645                 1.5770

                     19                     20                     21
                      A                      A                      A
 Frequencies --    485.0029               492.9076               543.7590
 Red. masses --      4.6290                 3.4246                 4.1048
 Frc consts  --      0.6415                 0.4902                 0.7151
 IR Inten    --      5.2720                 2.4525                 6.0681

                     22                     23                     24
                      A                      A                      A
 Frequencies --    545.7748               550.0984               558.0044
 Red. masses --      3.7200                 3.9934                 5.7556
 Frc consts  --      0.6529                 0.7120                 1.0559
 IR Inten    --      1.3056                 0.0319                 2.1878

                     25                     26                     27
                      A                      A                      A
 Frequencies --    648.4032               667.5629               688.3190
 Red. masses --      4.1938                 3.7832                 2.8854
 Frc consts  --      1.0388                 0.9933                 0.8055
 IR Inten    --      3.1751                 9.3230                 7.5874

                     28                     29                     30
                      A                      A                      A
 Frequencies --    783.3283               785.9653               789.9617
 Red. masses --      1.3390                 5.1429                 1.6626
 Frc consts  --      0.4841                 1.8718                 0.6113
 IR Inten    --      0.0429                 0.3184                72.8552

                     31                     32                     33
                      A                      A                      A
 Frequencies --    802.5772               853.6698               901.0297
 Red. masses --      5.2398                 3.3421                 1.4607
 Frc consts  --      1.9886                 1.4350                 0.6987
 IR Inten    --      3.4350                40.8201                 0.0707

                     34                     35                     36
                      A                      A                      A
 Frequencies --    917.0438               925.8807               973.6528
 Red. masses --      1.5189                 4.1377                 3.5053
 Frc consts  --      0.7526                 2.0899                 1.9579
 IR Inten    --      1.3882                 1.9223                37.3959

                     37                     38                     39
                      A                      A                      A
 Frequencies --    997.3417              1006.8193              1067.4418
 Red. masses --      1.3141                 1.3312                 2.4593
 Frc consts  --      0.7702                 0.7950                 1.6510
 IR Inten    --      0.3379                 0.6758                93.3039

                     40                     41                     42
                      A                      A                      A
 Frequencies --   1070.8770              1093.8866              1093.9762
 Red. masses --      4.0497                 1.3926                 1.3848
 Frc consts  --      2.7363                 0.9818                 0.9764
 IR Inten    --     30.7776                16.4639                 6.6429

                     43                     44                     45
                      A                      A                      A
 Frequencies --   1124.7755              1126.9134              1141.6591
 Red. masses --      1.2885                 1.3190                 1.7659
 Frc consts  --      0.9604                 0.9869                 1.3561
 IR Inten    --     10.5749                 3.8232                 0.2223

                     46                     47                     48
                      A                      A                      A
 Frequencies --   1149.3744              1177.2804              1180.0759
 Red. masses --      1.6819                 1.4585                 1.4434
 Frc consts  --      1.3091                 1.1910                 1.1843
 IR Inten    --      3.5521                 2.1592                37.9291

                     49                     50                     51
                      A                      A                      A
 Frequencies --   1187.3033              1203.0351              1229.5982
 Red. masses --      1.3744                 1.2359                 2.6698
 Frc consts  --      1.1415                 1.0539                 2.3782
 IR Inten    --      1.9281                 2.2558                15.9011

                     52                     53                     54
                      A                      A                      A
 Frequencies --   1240.3238              1251.3924              1275.3076
 Red. masses --      1.4940                 1.8591                 3.8636
 Frc consts  --      1.3541                 1.7153                 3.7023
 IR Inten    --      5.3876                11.8067                 5.9141

                     55                     56                     57
                      A                      A                      A
 Frequencies --   1277.0790              1361.2957              1375.4504
 Red. masses --      3.1036                 3.1910                 1.9630
 Frc consts  --      2.9823                 3.4840                 2.1881
 IR Inten    --     36.1150                 9.1653                35.3162

                     58                     59                     60
                      A                      A                      A
 Frequencies --   1402.7658              1407.2150              1443.4990
 Red. masses --      3.3953                 7.7382                 2.8799
 Frc consts  --      3.9364                 9.0284                 3.5356
 IR Inten    --     21.7229                14.3872                94.1324

                     61                     62                     63
                      A                      A                      A
 Frequencies --   1459.4132              1461.0551              1479.4610
 Red. masses --      1.1639                 1.2369                 1.4600
 Frc consts  --      1.4605                 1.5556                 1.8829
 IR Inten    --      0.6157                 8.4016                 9.6792

                     64                     65                     66
                      A                      A                      A
 Frequencies --   1484.6134              1487.4862              1492.1205
 Red. masses --      1.2845                 1.1747                 1.0526
 Frc consts  --      1.6681                 1.5314                 1.3808
 IR Inten    --      1.6497                 4.7758                 9.3417

                     67                     68                     69
                      A                      A                      A
 Frequencies --   1493.0271              1501.1542              1505.8828
 Red. masses --      1.3452                 1.1003                 1.0589
 Frc consts  --      1.7667                 1.4608                 1.4147
 IR Inten    --      3.2347                 4.0126                39.2857

                     70                     71                     72
                      A                      A                      A
 Frequencies --   1508.6044              1514.2001              1524.1147
 Red. masses --      1.1229                 1.0589                 1.6203
 Frc consts  --      1.5057                 1.4305                 2.2176
 IR Inten    --     17.1771                 1.0117                16.8996

                     73                     74                     75
                      A                      A                      A
 Frequencies --   1536.2915              1539.7887              1582.1723
 Red. masses --      1.2014                 1.1304                 4.1567
 Frc consts  --      1.6706                 1.5791                 6.1306
 IR Inten    --     23.5155                40.0585                23.8091

                     76                     77                     78
                      A                      A                      A
 Frequencies --   1663.6392              1682.3340              1698.9781
 Red. masses --      6.2780                 5.6642                 6.3656
 Frc consts  --     10.2374                 9.4453                10.8259
 IR Inten    --    215.2290                 0.0062                15.0633

                     79                     80                     81
                      A                      A                      A
 Frequencies --   2973.4111              2973.7116              2985.8787
 Red. masses --      1.0587                 1.0586                 1.0596
 Frc consts  --      5.5147                 5.5154                 5.5660
 IR Inten    --    143.8487                11.7598               243.5873

                     82                     83                     84
                      A                      A                      A
 Frequencies --   2987.5811              3096.2466              3096.3390
 Red. masses --      1.0593                 1.0751                 1.0755
 Frc consts  --      5.5709                 6.0725                 6.0752
 IR Inten    --     40.2480                19.6600                37.9810

                     85                     86                     87
                      A                      A                      A
 Frequencies --   3103.3259              3103.5621              3149.2774
 Red. masses --      1.0829                 1.0831                 1.1034
 Frc consts  --      6.1447                 6.1467                 6.4478
 IR Inten    --     69.3738                15.9611                21.2046

                     88                     89                     90
                      A                      A                      A
 Frequencies --   3149.2801              3204.0488              3205.7606
 Red. masses --      1.1035                 1.0868                 1.0937
 Frc consts  --      6.4483                 6.5737                 6.6222
 IR Inten    --     15.9834                 4.0558                 3.2778

                     91                     92                     93
                      A                      A                      A
 Frequencies --   3206.1623              3206.2119              3221.8443
 Red. masses --      1.0955                 1.0888                 1.0965
 Frc consts  --      6.6348                 6.5944                 6.7058
 IR Inten    --     10.7804                 2.3074                 9.7245

                     94                     95                     96
                      A                      A                      A
 Frequencies --   3224.2964              3249.6816              3249.6865
 Red. masses --      1.0958                 1.0919                 1.0917
 Frc consts  --      6.7121                 6.7939                 6.7927
 IR Inten    --     37.7808                14.2397                 2.2002

 - Thermochemistry -
 -------------------
 Temperature   298.150 Kelvin.  Pressure   1.00000 Atm.
 Atom     1 has atomic number  6 and mass  12.00000

 Molecular mass:   214.14700 amu.
 Principal axes and moments of inertia in atomic units:
                           1         2         3
     Eigenvalues --  2805.510882856.198795013.38670
           X            1.00000   0.00003  -0.00000
           Y           -0.00003   1.00000  -0.00153
           Z            0.00000   0.00153   1.00000
 This molecule is an asymmetric top.
 Rotational symmetry number  1.
 Warning -- assumption of classical behavior for rotation
           may cause significant error
 Rotational temperatures (Kelvin)      0.03087     0.03032     0.01728
 Rotational constants (GHZ):           0.64328     0.63187     0.35998
 Zero-point vibrational energy     779171.9 (Joules/Mol)
                                  186.22655 (Kcal/Mol)
 Warning -- explicit consideration of  24 degrees of freedom as
           vibrations may cause significant error
 Vibrational temperatures:     75.37   147.97   175.81   184.74   185.52
          (Kelvin)            224.51   258.98   311.49   358.64   391.71
                              441.57   455.83   465.69   477.74   517.37
                              541.82   564.21   651.07   697.81   709.18
                              782.35   785.25   791.47   802.84   932.91
                              960.47   990.34  1127.03  1130.83  1136.58
                             1154.73  1228.24  1296.38  1319.42  1332.13
                             1400.87  1434.95  1448.59  1535.81  1540.75
                             1573.86  1573.99  1618.30  1621.37  1642.59
                             1653.69  1693.84  1697.86  1708.26  1730.90
                             1769.12  1784.55  1800.47  1834.88  1837.43
                             1958.60  1978.96  2018.26  2024.67  2076.87
                             2099.77  2102.13  2128.61  2136.02  2140.16
                             2146.83  2148.13  2159.82  2166.63  2170.54
                             2178.59  2192.86  2210.38  2215.41  2276.39
                             2393.60  2420.50  2444.45  4278.07  4278.50
                             4296.01  4298.46  4454.80  4454.94  4464.99
                             4465.33  4531.10  4531.11  4609.91  4612.37
                             4612.95  4613.02  4635.51  4639.04  4675.56
                             4675.57

 Zero-point correction=                           0.296771 (Hartree/Particle)
 Thermal correction to Energy=                    0.311479
 Thermal correction to Enthalpy=                  0.312423
 Thermal correction to Gibbs Free Energy=         0.256346
 Sum of electronic and zero-point Energies=           -653.215521
 Sum of electronic and thermal Energies=              -653.200812
 Sum of electronic and thermal Enthalpies=            -653.199868
 Sum of electronic and thermal Free Energies=         -653.255946

                     E (Thermal)             CV                S
                      KCal/Mol        Cal/Mol-Kelvin    Cal/Mol-Kelvin
 Total                  195.456             58.482            118.025
 Electronic               0.000              0.000              0.000
 Translational            0.889              2.981             41.988
 Rotational               0.889              2.981             32.063
 Vibrational            193.679             52.520             43.974
 Vibration     1          0.596              1.977              4.725
 Vibration     2          0.605              1.947              3.400
 Vibration     3          0.610              1.931              3.065
 Vibration     4          0.611              1.925              2.970
 Vibration     5          0.611              1.924              2.962
 Vibration     6          0.620              1.896              2.597
 Vibration     7          0.629              1.867              2.328
 Vibration     8          0.645              1.816              1.988
 Vibration     9          0.662              1.764              1.736
 Vibration    10          0.675              1.724              1.582
 Vibration    11          0.697              1.661              1.379
 Vibration    12          0.704              1.641              1.326
 Vibration    13          0.708              1.628              1.291
 Vibration    14          0.714              1.612              1.250
 Vibration    15          0.734              1.556              1.124
 Vibration    16          0.747              1.520              1.053
 Vibration    17          0.760              1.487              0.992
 Vibration    18          0.811              1.355              0.788
 Vibration    19          0.841              1.283              0.697
 Vibration    20          0.849              1.266              0.676
 Vibration    21          0.899              1.153              0.557
 Vibration    22          0.901              1.149              0.553
 Vibration    23          0.905              1.139              0.544
 Vibration    24          0.914              1.122              0.528

 Optimization completed.
    -- Stationary point found.
 Normal termination of Gaussian 09 at Tue Jun 11 11:54:29 2024.
