 Gaussian 09, Revision E.01,
 Gaussian 09:  ES64L-G09RevE.01 30-Nov-2015

 --------------------------------------
 # opt freq pbepbe/6-31+g(d,p) em=gd3bj
 --------------------------------------

 ----------
 [No Title]
 ----------
 Symbolic Z-matrix:
 Charge =  1 Multiplicity = 1

 SCF Done:  E(RPBE-PBE) =  -653.447633141     A.U. after   16 cycles
 SCF Done:  E(RPBE-PBE) =  -653.448128470     A.U. after   14 cycles
 SCF Done:  E(RPBE-PBE) =  -653.447419692     A.U. after   13 cycles
 SCF Done:  E(RPBE-PBE) =  -653.448925924     A.U. after   10 cycles
 SCF Done:  E(RPBE-PBE) =  -653.449231215     A.U. after   12 cycles
 SCF Done:  E(RPBE-PBE) =  -653.449343604     A.U. after   12 cycles
 SCF Done:  E(RPBE-PBE) =  -653.449183620     A.U. after   13 cycles
 SCF Done:  E(RPBE-PBE) =  -653.449333360     A.U. after   12 cycles
 SCF Done:  E(RPBE-PBE) =  -653.449457624     A.U. after   12 cycles
 SCF Done:  E(RPBE-PBE) =  -653.449462662     A.U. after   11 cycles
 SCF Done:  E(RPBE-PBE) =  -653.449464413     A.U. after   11 cycles
 SCF Done:  E(RPBE-PBE) =  -653.449464544     A.U. after   11 cycles
 SCF Done:  E(RPBE-PBE) =  -653.449464899     A.U. after    9 cycles
 Optimization completed.
    -- Stationary point found.
 Normal termination of Gaussian 09 at Thu Jun 20 16:00:10 2024.

 ----------------------------------------------------------------------
 #N Geom=AllCheck Guess=TCheck SCRF=Check GenChk RPBEPBE/6-31+G(d,p) Fr
 eq
 ----------------------------------------------------------------------

 Structure from the checkpoint file:  "pbeDMANyanggd3.chk"
 ----------
 [No Title]
 ----------
 Charge =  1 Multiplicity = 1

                         Standard orientation:
 ---------------------------------------------------------------------
 Center     Atomic      Atomic             Coordinates (Angstroms)
 Number     Number       Type             X           Y           Z
 ---------------------------------------------------------------------
      1          6           0        0.738030   -2.453446   -0.000178
      2          6           0        2.154329   -2.424630   -0.000223
      3          6           0        2.818670   -1.210291   -0.000165
      4          6           0        2.104328    0.021743   -0.000057
      5          6           0        0.657728    0.008782    0.000011
      6          6           0        0.017222   -1.271589   -0.000064
      7          6           0        2.793869    1.267510   -0.000025
      8          6           0        2.101594    2.465937    0.000061
      9          6           0        0.684927    2.463888    0.000126
     10          6           0       -0.021307    1.271324    0.000109
     11          7           0       -1.461143   -1.298031   -0.000043
     12          7           0       -1.491862    1.265795    0.000196
     13          6           0       -2.030127   -1.909379   -1.237576
     14          6           0       -2.030088   -1.909675    1.237361
     15          6           0       -2.065089    1.874011    1.229888
     16          6           0       -2.065253    1.873917   -1.229464
     17          1           0        0.218832   -3.416409   -0.000238
     18          1           0        2.712702   -3.363760   -0.000313
     19          1           0        3.912088   -1.179151   -0.000211
     20          1           0        3.887661    1.259399   -0.000076
     21          1           0        2.639631    3.417081    0.000081
     22          1           0        0.146484    3.416215    0.000198
     23          1           0       -1.690395   -0.114221    0.000096
     24          1           0       -3.121529   -1.770836   -1.231991
     25          1           0       -1.593967   -1.411030   -2.114139
     26          1           0       -1.799096   -2.984747   -1.280188
     27          1           0       -3.121488   -1.771118    1.231852
     28          1           0       -1.593887   -1.411549    2.114030
     29          1           0       -1.799069   -2.985057    1.279698
     30          1           0       -1.621799    1.393033    2.113688
     31          1           0       -1.863288    2.957932    1.277332
     32          1           0       -3.154573    1.715317    1.232059
     33          1           0       -1.622085    1.392865   -2.113285
     34          1           0       -3.154738    1.715230   -1.231474
     35          1           0       -1.863453    2.957833   -1.277020
 ---------------------------------------------------------------------

 SCF Done:  E(RPBE-PBE) =  -653.449464899     A.U. after    2 cycles

 The electronic state is 1-A.
 Alpha  occ. eigenvalues --  -14.22716 -14.19815 -10.08950 -10.08331 -10.08080
 Alpha  occ. eigenvalues --  -10.08079 -10.06800 -10.06799 -10.06540 -10.05385
 Alpha  occ. eigenvalues --  -10.05096 -10.04600 -10.04032 -10.03950 -10.03813
 Alpha  occ. eigenvalues --  -10.03752  -1.04750  -1.01175  -0.92826  -0.87999
 Alpha  occ. eigenvalues --   -0.83970  -0.81224  -0.80587  -0.79329  -0.79031
 Alpha  occ. eigenvalues --   -0.75146  -0.73183  -0.70243  -0.68442  -0.65870
 Alpha  occ. eigenvalues --   -0.62124  -0.61168  -0.60339  -0.58321  -0.57778
 Alpha  occ. eigenvalues --   -0.56942  -0.55975  -0.54774  -0.54117  -0.52354
 Alpha  occ. eigenvalues --   -0.51358  -0.51009  -0.50141  -0.49621  -0.49575
 Alpha  occ. eigenvalues --   -0.48761  -0.48511  -0.48039  -0.47236  -0.46998
 Alpha  occ. eigenvalues --   -0.46175  -0.43707  -0.43334  -0.42605  -0.39069
 Alpha  occ. eigenvalues --   -0.35961  -0.35875  -0.33078
 Alpha virt. eigenvalues --   -0.21143  -0.18109  -0.15009  -0.14146  -0.11430
 Alpha virt. eigenvalues --   -0.10912  -0.10726  -0.10722  -0.09835  -0.09093
 Alpha virt. eigenvalues --   -0.08638  -0.08333  -0.07903  -0.07779  -0.07149

 Mulliken charges:
               1
     1  C   -0.116032
     2  C   -0.282474
     3  C   -0.044684
     4  C   -0.482064
     5  C   -0.046014
     6  C   -0.120705
     7  C   -0.057521
     8  C   -0.278839
     9  C   -0.117923
    10  C   -0.145266
    11  N   -0.246697
    12  N   -0.268842
    13  C   -0.185311
    14  C   -0.185289
    15  C   -0.180575
    16  C   -0.180573
    17  H    0.160796
    18  H    0.178392
    19  H    0.172718
    20  H    0.171957
    21  H    0.177672
    22  H    0.161287
    23  H    0.489387
    24  H    0.203140
    25  H    0.208721
    26  H    0.209009
    27  H    0.203139
    28  H    0.208727
    29  H    0.209007
    30  H    0.197597
    31  H    0.200043
    32  H    0.194790
    33  H    0.197586
    34  H    0.194792
    35  H    0.200050
 Sum of Mulliken charges =   1.00000

 Dipole moment (field-independent basis, Debye):
    X=             -3.8976    Y=             -0.7646    Z=              0.0000  Tot=              3.9718
 Quadrupole moment (field-independent basis, Debye-Ang):
   XX=            -62.9460   YY=            -65.0785   ZZ=            -91.9784
   XY=              1.4808   XZ=             -0.0009   YZ=              0.0020

  Exact polarizability: 203.153  -0.492 221.129  -0.003   0.007 113.562
 Approx polarizability: 381.885  -0.921 469.734  -0.007   0.018 192.613

                      1                      2                      3
                      A                      A                      A
 Frequencies --     27.6100                90.9590               126.4087
 Red. masses --      3.5012                 2.7501                 3.2624
 Frc consts  --      0.0016                 0.0134                 0.0307
 IR Inten    --      0.0191                 0.1312                 0.4041

                      4                      5                      6
                      A                      A                      A
 Frequencies --    147.2073               162.8514               171.1227
 Red. masses --      2.3150                 2.5988                 3.3419
 Frc consts  --      0.0296                 0.0406                 0.0577
 IR Inten    --      0.0302                83.8059                 3.8626

                      7                      8                      9
                      A                      A                      A
 Frequencies --    184.9839               219.1483               222.1620
 Red. masses --      3.7495                 1.1115                 1.4021
 Frc consts  --      0.0756                 0.0315                 0.0408
 IR Inten    --      0.0624                 0.0101                 0.0014

                     10                     11                     12
                      A                      A                      A
 Frequencies --    235.4987               252.1484               256.8033
 Red. masses --      1.0730                 1.9499                 1.2642
 Frc consts  --      0.0351                 0.0730                 0.0491
 IR Inten    --      0.0310                 5.9895                 5.8458

                     13                     14                     15
                      A                      A                      A
 Frequencies --    266.4855               310.8220               310.8238
 Red. masses --      2.1792                 2.6201                 3.3508
 Frc consts  --      0.0912                 0.1491                 0.1907
 IR Inten    --      1.0517                16.0762                 0.1524

                     16                     17                     18
                      A                      A                      A
 Frequencies --    368.8246               399.4864               436.7450
 Red. masses --      3.6849                 2.3359                 3.0513
 Frc consts  --      0.2953                 0.2196                 0.3429
 IR Inten    --     12.7115               311.6457                 0.6753

                     19                     20                     21
                      A                      A                      A
 Frequencies --    458.2586               471.2059               505.9875
 Red. masses --      3.3690                 3.3839                 4.8158
 Frc consts  --      0.4168                 0.4427                 0.7264
 IR Inten    --      0.4416               195.9986                28.5137

                     22                     23                     24
                      A                      A                      A
 Frequencies --    521.0921               522.8342               550.8484
 Red. masses --      3.6139                 5.2927                 3.9515
 Frc consts  --      0.5782                 0.8524                 0.7064
 IR Inten    --      0.0046                10.8524                 0.1590

                     25                     26                     27
                      A                      A                      A
 Frequencies --    624.6338               625.2714               643.7117
 Red. masses --      4.1259                 2.8395                 3.1221
 Frc consts  --      0.9485                 0.6541                 0.7622
 IR Inten    --      0.0932               403.8252                 0.0251

                     28                     29                     30
                      A                      A                      A
 Frequencies --    742.9049               750.6943               757.2015
 Red. masses --      4.0646                 2.1720                 1.2980
 Frc consts  --      1.3217                 0.7212                 0.4385
 IR Inten    --     55.0772                59.8131                 0.0763

                     31                     32                     33
                      A                      A                      A
 Frequencies --    773.4833               801.3202               810.9914
 Red. masses --      5.2346                 2.5048                 2.2333
 Frc consts  --      1.8452                 0.9476                 0.8654
 IR Inten    --      1.6665               468.4029                31.4470

                     34                     35                     36
                      A                      A                      A
 Frequencies --    887.2957               890.8298               905.9211
 Red. masses --      1.3693                 3.8403                 1.4476
 Frc consts  --      0.6352                 1.7956                 0.6999
 IR Inten    --      0.0694                39.0972                 2.3156

                     37                     38                     39
                      A                      A                      A
 Frequencies --    926.8006               955.4978               966.5189
 Red. masses --      2.4329                 1.3179                 1.3364
 Frc consts  --      1.2313                 0.7089                 0.7356
 IR Inten    --    122.2405                 0.0039                 0.4521

                     40                     41                     42
                      A                      A                      A
 Frequencies --    997.8508              1003.8837              1007.9973
 Red. masses --      1.9404                 2.7515                 1.8131
 Frc consts  --      1.1383                 1.6338                 1.0854
 IR Inten    --      9.9849                33.1200                13.8796

                     43                     44                     45
                      A                      A                      A
 Frequencies --   1030.7658              1052.1275              1070.3856
 Red. masses --      3.0651                 1.2183                 1.2520
 Frc consts  --      1.9187                 0.7946                 0.8452
 IR Inten    --    164.6904                 0.6642                 0.3209

                     46                     47                     48
                      A                      A                      A
 Frequencies --   1084.1597              1095.1959              1148.8400
 Red. masses --      1.7903                 1.9361                 2.3786
 Frc consts  --      1.2398                 1.3682                 1.8496
 IR Inten    --      2.2901                58.5512                 5.2836

                     49                     50                     51
                      A                      A                      A
 Frequencies --   1151.9912              1158.3435              1159.4723
 Red. masses --      1.4407                 2.7883                 1.2193
 Frc consts  --      1.1265                 2.2043                 0.9658
 IR Inten    --      3.9885                 4.9241                17.7057

                     52                     53                     54
                      A                      A                      A
 Frequencies --   1171.4528              1179.3513              1197.4268
 Red. masses --      1.3620                 1.3652                 1.7326
 Frc consts  --      1.1012                 1.1188                 1.4637
 IR Inten    --     23.2950                49.2062                31.2544

                     55                     56                     57
                      A                      A                      A
 Frequencies --   1224.0931              1233.2299              1249.3095
 Red. masses --      1.8287                 2.3097                 2.4279
 Frc consts  --      1.6144                 2.0696                 2.2327
 IR Inten    --      1.6020                58.5416                81.4354

                     58                     59                     60
                      A                      A                      A
 Frequencies --   1256.9246              1365.6892              1381.9098
 Red. masses --      2.3176                 2.5225                 5.2793
 Frc consts  --      2.1573                 2.7719                 5.9400
 IR Inten    --     10.2056                44.1450                 0.8634

                     61                     62                     63
                      A                      A                      A
 Frequencies --   1385.5605              1391.4324              1395.9240
 Red. masses --      5.3791                 1.1410                 1.1391
 Frc consts  --      6.0843                 1.3016                 1.3077
 IR Inten    --      1.4994                 0.2539                10.9209

                     64                     65                     66
                      A                      A                      A
 Frequencies --   1425.1639              1430.1863              1430.5436
 Red. masses --      1.3250                 1.6147                 1.0398
 Frc consts  --      1.5856                 1.9459                 1.2537
 IR Inten    --      2.4000                 5.2824                 0.0256

                     67                     68                     69
                      A                      A                      A
 Frequencies --   1433.7989              1440.0512              1445.9586
 Red. masses --      1.3510                 1.0462                 1.0429
 Frc consts  --      1.6364                 1.2783                 1.2847
 IR Inten    --     21.7027                 3.4051                 1.2090

                     70                     71                     72
                      A                      A                      A
 Frequencies --   1452.2230              1456.6334              1459.6300
 Red. masses --      1.0420                 1.0814                 1.6814
 Frc consts  --      1.2947                 1.3518                 2.1106
 IR Inten    --     16.5963               104.6240                 0.2635

                     73                     74                     75
                      A                      A                      A
 Frequencies --   1461.1016              1469.9699              1472.6640
 Red. masses --      1.0944                 1.3386                 1.0633
 Frc consts  --      1.3766                 1.7041                 1.3586
 IR Inten    --     36.1079               105.7080                28.3821

                     76                     77                     78
                      A                      A                      A
 Frequencies --   1518.7991              1579.1312              1602.5022
 Red. masses --      3.9438                 7.3840                 4.9298
 Frc consts  --      5.3600                10.8487                 7.4589
 IR Inten    --     37.5106                 3.7250                27.1771

                     79                     80                     81
                      A                      A                      A
 Frequencies --   1629.1491              1659.1212              1784.0319
 Red. masses --      6.8718                 1.0718                 1.0968
 Frc consts  --     10.7459                 1.7382                 2.0568
 IR Inten    --      4.9507                 1.2737                76.4729

                     82                     83                     84
                      A                      A                      A
 Frequencies --   2980.8963              2984.1378              3001.0565
 Red. masses --      1.0343                 1.0353                 1.0316
 Frc consts  --      5.4152                 5.4321                 5.4741
 IR Inten    --     14.8077                17.4781                 8.1115

                     85                     86                     87
                      A                      A                      A
 Frequencies --   3004.1408              3064.3864              3064.8424
 Red. masses --      1.0325                 1.1014                 1.1028
 Frc consts  --      5.4900                 6.0937                 6.1033
 IR Inten    --      8.9623                15.2179                 0.4446

                     88                     89                     90
                      A                      A                      A
 Frequencies --   3091.2863              3091.6764              3095.3411
 Red. masses --      1.1067                 1.1055                 1.1050
 Frc consts  --      6.2308                 6.2256                 6.2378
 IR Inten    --      0.0002                 7.8065                 2.4999

                     91                     92                     93
                      A                      A                      A
 Frequencies --   3096.7086              3109.9801              3111.1031
 Red. masses --      1.1053                 1.1057                 1.1063
 Frc consts  --      6.2451                 6.3007                 6.3086
 IR Inten    --     11.7733                 1.3346                 6.9321

                     94                     95                     96
                      A                      A                      A
 Frequencies --   3130.3463              3130.6415              3135.8851
 Red. masses --      1.0888                 1.0882                 1.0906
 Frc consts  --      6.2861                 6.2840                 6.3186
 IR Inten    --      3.3786                 1.7280                 0.0452

                     97                     98                     99
                      A                      A                      A
 Frequencies --   3137.3191              3155.4790              3157.4595
 Red. masses --      1.0902                 1.0968                 1.0966
 Frc consts  --      6.3224                 6.4346                 6.4411
 IR Inten    --      3.2248                 1.3477                 0.9319

 - Thermochemistry -
 -------------------
 Temperature   298.150 Kelvin.  Pressure   1.00000 Atm.
 Atom     1 has atomic number  6 and mass  12.00000

 Molecular mass:   215.15482 amu.
 Principal axes and moments of inertia in atomic units:
                           1         2         3
     Eigenvalues --  2825.870953017.662925102.45330
           X            1.00000   0.00125   0.00003
           Y           -0.00125   1.00000  -0.00007
           Z           -0.00003   0.00007   1.00000
 This molecule is an asymmetric top.
 Rotational symmetry number  1.
 Warning -- assumption of classical behavior for rotation
           may cause significant error
 Rotational temperatures (Kelvin)      0.03065     0.02870     0.01697
 Rotational constants (GHZ):           0.63865     0.59806     0.35370
 Zero-point vibrational energy     779786.1 (Joules/Mol)
                                  186.37335 (Kcal/Mol)
 Warning -- explicit consideration of  24 degrees of freedom as
           vibrations may cause significant error
 Vibrational temperatures:     39.72   130.87   181.87   211.80   234.31
          (Kelvin)            246.21   266.15   315.31   319.64   338.83
                              362.78   369.48   383.41   447.20   447.21
                              530.66   574.77   628.38   659.33   677.96
                              728.00   749.73   752.24   792.55   898.71
                              899.62   926.16  1068.87  1080.08  1089.44
                             1112.87  1152.92  1166.83  1276.62  1281.70
                             1303.42  1333.46  1374.75  1390.60  1435.68
                             1444.36  1450.28  1483.04  1513.77  1540.04
                             1559.86  1575.74  1652.92  1657.46  1666.60
                             1668.22  1685.46  1696.82  1722.83  1761.19
                             1774.34  1797.48  1808.43  1964.92  1988.26
                             1993.51  2001.96  2008.42  2050.49  2057.72
                             2058.23  2062.91  2071.91  2080.41  2089.42
                             2095.77  2100.08  2102.20  2114.96  2118.83
                             2185.21  2272.01  2305.64  2343.98  2387.10
                             2566.82  4288.84  4293.50  4317.85  4322.28
                             4408.96  4409.62  4447.67  4448.23  4453.50
                             4455.47  4474.56  4476.18  4503.86  4504.29
                             4511.83  4513.90  4540.02  4542.87

 Zero-point correction=                           0.297005 (Hartree/Particle)
 Thermal correction to Energy=                    0.312504
 Thermal correction to Enthalpy=                  0.313448
 Thermal correction to Gibbs Free Energy=         0.255599
 Sum of electronic and zero-point Energies=           -653.152460
 Sum of electronic and thermal Energies=              -653.136961
 Sum of electronic and thermal Enthalpies=            -653.136017
 Sum of electronic and thermal Free Energies=         -653.193866

                     E (Thermal)             CV                S
                      KCal/Mol        Cal/Mol-Kelvin    Cal/Mol-Kelvin
 Total                  196.099             61.987            121.754
 Electronic               0.000              0.000              0.000
 Translational            0.889              2.981             42.002
 Rotational               0.889              2.981             32.142
 Vibrational            194.322             56.026             47.609
 Vibration     1          0.593              1.984              5.994
 Vibration     2          0.602              1.956              3.639
 Vibration     3          0.611              1.927              3.000
 Vibration     4          0.617              1.906              2.708
 Vibration     5          0.623              1.888              2.516
 Vibration     6          0.626              1.878              2.423
 Vibration     7          0.631              1.860              2.278
 Vibration     8          0.647              1.812              1.966
 Vibration     9          0.648              1.807              1.941
 Vibration    10          0.655              1.786              1.837
 Vibration    11          0.664              1.759              1.716
 Vibration    12          0.666              1.751              1.683
 Vibration    13          0.672              1.735              1.619
 Vibration    14          0.700              1.653              1.358
 Vibration    15          0.700              1.653              1.358
 Vibration    16          0.741              1.536              1.085
 Vibration    17          0.766              1.471              0.965
 Vibration    18          0.797              1.390              0.837
 Vibration    19          0.816              1.343              0.771
 Vibration    20          0.828              1.314              0.734
 Vibration    21          0.861              1.237              0.643
 Vibration    22          0.876              1.203              0.607
 Vibration    23          0.878              1.199              0.603
 Vibration    24          0.906              1.138              0.542

 Optimization completed.
    -- Stationary point found.
 Normal termination of Gaussian 09 at Thu Jun 20 16:04:34 2024.
