 Gaussian 09, Revision E.01,
 Gaussian 09:  ES64L-G09RevE.01 30-Nov-2015

 --------------------------------------
 # opt freq pbepbe/6-31+g(d,p) em=gd3bj
 --------------------------------------

 ----------
 [No Title]
 ----------
 Symbolic Z-matrix:
 Charge =  0 Multiplicity = 1

 SCF Done:  E(RPBE-PBE) =  -653.043778050     A.U. after   16 cycles
 SCF Done:  E(RPBE-PBE) =  -653.041181556     A.U. after   14 cycles
 SCF Done:  E(RPBE-PBE) =  -653.044497227     A.U. after   11 cycles
 SCF Done:  E(RPBE-PBE) =  -653.044337075     A.U. after   14 cycles
 SCF Done:  E(RPBE-PBE) =  -653.045125570     A.U. after   11 cycles
 SCF Done:  E(RPBE-PBE) =  -653.045189485     A.U. after   11 cycles
 SCF Done:  E(RPBE-PBE) =  -653.045256928     A.U. after   13 cycles
 SCF Done:  E(RPBE-PBE) =  -653.045264597     A.U. after   12 cycles
 SCF Done:  E(RPBE-PBE) =  -653.045264167     A.U. after   12 cycles
 SCF Done:  E(RPBE-PBE) =  -653.045282755     A.U. after   12 cycles
 SCF Done:  E(RPBE-PBE) =  -653.045286181     A.U. after   11 cycles
 SCF Done:  E(RPBE-PBE) =  -653.045287916     A.U. after   12 cycles
 SCF Done:  E(RPBE-PBE) =  -653.045288412     A.U. after   10 cycles
 Optimization completed.
    -- Stationary point found.
 Normal termination of Gaussian 09 at Thu Jun 20 14:42:26 2024.

 ----------------------------------------------------------------------
 #N Geom=AllCheck Guess=TCheck SCRF=Check GenChk RPBEPBE/6-31+G(d,p) Fr
 eq
 ----------------------------------------------------------------------

 Structure from the checkpoint file:  "pbeDMANgd3.chk"
 ----------
 [No Title]
 ----------
 Charge =  0 Multiplicity = 1

                         Standard orientation:
 ---------------------------------------------------------------------
 Center     Atomic      Atomic             Coordinates (Angstroms)
 Number     Number       Type             X           Y           Z
 ---------------------------------------------------------------------
      1          6           0        0.683567    2.448012    0.240423
      2          6           0        2.087810    2.402855    0.395700
      3          6           0        2.765900    1.210723    0.221229
      4          6           0        2.048378   -0.000912    0.000004
      5          6           0        0.601202   -0.000264    0.000020
      6          6           0       -0.065441    1.291821   -0.018300
      7          6           0        2.764804   -1.213190   -0.221249
      8          6           0        2.085640   -2.404709   -0.395740
      9          6           0        0.681358   -2.448609   -0.240457
     10          6           0       -0.066601   -1.291751    0.018319
     11          7           0       -1.443139    1.384521   -0.302059
     12          7           0       -1.444378   -1.383200    0.302114
     13          6           0       -1.905273    0.815473   -1.567869
     14          6           0       -2.132462    2.619536    0.026780
     15          6           0       -2.134904   -2.617484   -0.026953
     16          6           0       -1.905918   -0.813963    1.568060
     17          1           0        0.187890    3.420784    0.248951
     18          1           0        2.635409    3.331058    0.586389
     19          1           0        3.859144    1.173309    0.253282
     20          1           0        3.858080   -1.176756   -0.253319
     21          1           0        2.632405   -3.333397   -0.586460
     22          1           0        0.184802   -3.420932   -0.249001
     23          1           0       -1.272545   -0.029230   -1.863881
     24          1           0       -2.942363    0.451865   -1.464704
     25          1           0       -1.873661    1.578037   -2.377301
     26          1           0       -1.899159    2.923691    1.059376
     27          1           0       -1.885562    3.464627   -0.656434
     28          1           0       -3.218602    2.441770   -0.044919
     29          1           0       -1.901911   -2.921649   -1.059615
     30          1           0       -1.888815   -3.462957    0.656082
     31          1           0       -3.220869   -2.438677    0.044795
     32          1           0       -1.272235    0.029937    1.864313
     33          1           0       -2.942600   -0.449164    1.464980
     34          1           0       -1.875151   -1.576778    2.377285
 ---------------------------------------------------------------------

 SCF Done:  E(RPBE-PBE) =  -653.045288412     A.U. after    2 cycles

 The electronic state is 1-A.
 Alpha  occ. eigenvalues --  -14.02359 -14.02359  -9.94069  -9.94069  -9.92786
 Alpha  occ. eigenvalues --   -9.92786  -9.92173  -9.92173  -9.91332  -9.91042
 Alpha  occ. eigenvalues --   -9.90129  -9.90129  -9.89695  -9.89694  -9.89467
 Alpha  occ. eigenvalues --   -9.89467  -0.86993  -0.85519  -0.77787  -0.73376
 Alpha  occ. eigenvalues --   -0.69070  -0.66915  -0.65345  -0.64497  -0.64198
 Alpha  occ. eigenvalues --   -0.59002  -0.58777  -0.54549  -0.53605  -0.50088
 Alpha  occ. eigenvalues --   -0.46587  -0.45687  -0.44645  -0.42902  -0.42129
 Alpha  occ. eigenvalues --   -0.41630  -0.40932  -0.40138  -0.39315  -0.37379
 Alpha  occ. eigenvalues --   -0.36001  -0.35761  -0.35113  -0.34838  -0.34721
 Alpha  occ. eigenvalues --   -0.33659  -0.33444  -0.32795  -0.32750  -0.32144
 Alpha  occ. eigenvalues --   -0.29869  -0.28873  -0.28656  -0.25423  -0.22448
 Alpha  occ. eigenvalues --   -0.21478  -0.16896  -0.15979
 Alpha virt. eigenvalues --   -0.05987  -0.04092  -0.01681  -0.00639  -0.00017
 Alpha virt. eigenvalues --    0.00168   0.01300   0.01540   0.01824   0.02182
 Alpha virt. eigenvalues --    0.03220   0.03725   0.03783   0.04022   0.04424

 Mulliken charges:
               1
     1  C   -0.376284
     2  C   -0.416140
     3  C   -0.098805
     4  C   -0.195183
     5  C   -0.085183
     6  C    0.142187
     7  C   -0.098777
     8  C   -0.416080
     9  C   -0.376084
    10  C    0.141993
    11  N    0.089471
    12  N    0.089414
    13  C   -0.289099
    14  C   -0.315357
    15  C   -0.315347
    16  C   -0.289068
    17  H    0.129280
    18  H    0.137921
    19  H    0.135565
    20  H    0.135566
    21  H    0.137921
    22  H    0.129282
    23  H    0.187017
    24  H    0.161069
    25  H    0.151198
    26  H    0.175076
    27  H    0.162946
    28  H    0.164089
    29  H    0.175081
    30  H    0.162940
    31  H    0.164096
    32  H    0.187015
    33  H    0.161080
    34  H    0.151199
 Sum of Mulliken charges =  -0.00000

 Dipole moment (field-independent basis, Debye):
    X=             -2.1963    Y=              0.0009    Z=              0.0000  Tot=              2.1963
 Quadrupole moment (field-independent basis, Debye-Ang):
   XX=            -91.0646   YY=            -90.9218   ZZ=           -101.8923
   XY=             -0.0000   XZ=              0.0008   YZ=              1.6512

  Exact polarizability: 237.245   0.001 238.503   0.003   6.001 129.984
 Approx polarizability: 482.972  -0.000 479.390   0.014  31.245 223.928

                      1                      2                      3
                      A                      A                      A
 Frequencies --     58.7610                62.8701                84.1468
 Red. masses --      3.2488                 1.7733                 1.9355
 Frc consts  --      0.0066                 0.0041                 0.0081
 IR Inten    --      0.0013                 6.1497                 0.1773

                      4                      5                      6
                      A                      A                      A
 Frequencies --    121.6511               121.8512               138.7219
 Red. masses --      3.0022                 2.8274                 2.7777
 Frc consts  --      0.0262                 0.0247                 0.0315
 IR Inten    --      0.3868                 1.3213                 0.2343

                      7                      8                      9
                      A                      A                      A
 Frequencies --    166.6463               205.5568               241.1786
 Red. masses --      2.1402                 2.3066                 1.7288
 Frc consts  --      0.0350                 0.0574                 0.0592
 IR Inten    --      1.0378                 0.0075                 1.0140

                     10                     11                     12
                      A                      A                      A
 Frequencies --    267.8462               293.0833               307.2466
 Red. masses --      1.7408                 1.5191                 1.6017
 Frc consts  --      0.0736                 0.0769                 0.0891
 IR Inten    --      3.9121                 4.0712                 2.1309

                     13                     14                     15
                      A                      A                      A
 Frequencies --    307.4868               326.1907               347.5559
 Red. masses --      2.3793                 2.0550                 2.4673
 Frc consts  --      0.1325                 0.1288                 0.1756
 IR Inten    --      5.0352                 0.4294                 1.7855

                     16                     17                     18
                      A                      A                      A
 Frequencies --    351.0291               378.2706               439.4537
 Red. masses --      3.4022                 2.7359                 2.9608
 Frc consts  --      0.2470                 0.2307                 0.3369
 IR Inten    --      4.3128                 2.3692                 1.0242

                     19                     20                     21
                      A                      A                      A
 Frequencies --    463.5155               467.6518               514.0843
 Red. masses --      4.4439                 3.5596                 3.8118
 Frc consts  --      0.5625                 0.4587                 0.5935
 IR Inten    --      6.3255                 2.7594                 1.9784

                     22                     23                     24
                      A                      A                      A
 Frequencies --    518.1978               529.5675               532.2802
 Red. masses --      3.9122                 4.0717                 5.9625
 Frc consts  --      0.6190                 0.6728                 0.9953
 IR Inten    --      4.5132                 0.1167                 1.4437

                     25                     26                     27
                      A                      A                      A
 Frequencies --    618.5651               627.7806               648.7072
 Red. masses --      4.0696                 3.9552                 3.1718
 Frc consts  --      0.9174                 0.9184                 0.7864
 IR Inten    --      1.0067                 8.0630                 8.0085

                     28                     29                     30
                      A                      A                      A
 Frequencies --    732.0209               736.4165               753.0671
 Red. masses --      1.3356                 1.8138                 5.1878
 Frc consts  --      0.4217                 0.5795                 1.7334
 IR Inten    --      0.4366                61.3320                 0.3625

                     31                     32                     33
                      A                      A                      A
 Frequencies --    770.0491               786.3864               826.3789
 Red. masses --      5.1524                 2.8425                 1.4316
 Frc consts  --      1.8001                 1.0357                 0.5760
 IR Inten    --      2.3559                47.1931                 0.8341

                     34                     35                     36
                      A                      A                      A
 Frequencies --    845.6059               891.5928               921.2852
 Red. masses --      1.5146                 4.2715                 1.2760
 Frc consts  --      0.6381                 2.0006                 0.6381
 IR Inten    --      4.2569                 2.8875                 0.8297

                     37                     38                     39
                      A                      A                      A
 Frequencies --    930.2655               936.9802              1029.0882
 Red. masses --      1.3042                 3.5505                 2.4630
 Frc consts  --      0.6650                 1.8365                 1.5368
 IR Inten    --      1.1748                29.3777                81.3013

                     40                     41                     42
                      A                      A                      A
 Frequencies --   1034.3130              1052.3323              1052.7607
 Red. masses --      3.8679                 1.3738                 1.3745
 Frc consts  --      2.4380                 0.8963                 0.8975
 IR Inten    --     27.8851                10.8133                14.3140

                     43                     44                     45
                      A                      A                      A
 Frequencies --   1077.5892              1080.1407              1098.3722
 Red. masses --      1.2879                 1.2990                 1.8009
 Frc consts  --      0.8811                 0.8929                 1.2801
 IR Inten    --     10.0392                 5.0425                 0.2204

                     46                     47                     48
                      A                      A                      A
 Frequencies --   1104.3778              1118.6284              1120.4766
 Red. masses --      1.6017                 1.4487                 1.4378
 Frc consts  --      1.1510                 1.0681                 1.0635
 IR Inten    --      3.4511                 2.3784                56.1516

                     49                     50                     51
                      A                      A                      A
 Frequencies --   1151.2741              1154.8376              1185.7499
 Red. masses --      1.2568                 1.2486                 1.4805
 Frc consts  --      0.9814                 0.9811                 1.2264
 IR Inten    --      0.6963                 1.8518                12.0658

                     52                     53                     54
                      A                      A                      A
 Frequencies --   1197.1310              1202.5343              1219.4377
 Red. masses --      1.8330                 3.8246                 3.8285
 Frc consts  --      1.5477                 3.2586                 3.3543
 IR Inten    --     11.2844                26.2716                 7.7267

                     55                     56                     57
                      A                      A                      A
 Frequencies --   1224.1402              1319.0114              1325.0159
 Red. masses --      2.3078                 1.9517                 3.2122
 Frc consts  --      2.0375                 2.0006                 3.3227
 IR Inten    --     16.7585                25.0522                27.4584

                     58                     59                     60
                      A                      A                      A
 Frequencies --   1361.6436              1364.3674              1383.1363
 Red. masses --      6.4406                 4.7753                 3.0306
 Frc consts  --      7.0356                 5.2373                 3.4159
 IR Inten    --     24.2675                 6.6156                65.1494

                     61                     62                     63
                      A                      A                      A
 Frequencies --   1395.7422              1397.7880              1413.7938
 Red. masses --      1.1491                 1.2035                 1.5858
 Frc consts  --      1.3190                 1.3854                 1.8676
 IR Inten    --      0.8189                 4.4935                17.7830

                     64                     65                     66
                      A                      A                      A
 Frequencies --   1418.7803              1425.5707              1428.3917
 Red. masses --      1.3703                 1.0627                 1.0810
 Frc consts  --      1.6251                 1.2725                 1.2995
 IR Inten    --      3.6678                 2.0932                 4.3880

                     67                     68                     69
                      A                      A                      A
 Frequencies --   1432.0210              1440.0008              1443.2381
 Red. masses --      1.4510                 1.0900                 1.0518
 Frc consts  --      1.7532                 1.3317                 1.2908
 IR Inten    --      6.5811                10.0587                32.8222

                     70                     71                     72
                      A                      A                      A
 Frequencies --   1446.4031              1452.7757              1459.3330
 Red. masses --      1.1080                 1.0564                 1.5096
 Frc consts  --      1.3658                 1.3137                 1.8942
 IR Inten    --     18.4418                 3.5024                15.6888

                     73                     74                     75
                      A                      A                      A
 Frequencies --   1478.1829              1481.0616              1516.1203
 Red. masses --      1.2411                 1.1744                 4.2488
 Frc consts  --      1.5978                 1.5178                 5.7542
 IR Inten    --     24.4701                41.6972                40.8561

                     76                     77                     78
                      A                      A                      A
 Frequencies --   1577.8642              1593.5977              1603.2663
 Red. masses --      5.6678                 6.1357                 6.3014
 Frc consts  --      8.3138                 9.1806                 9.5433
 IR Inten    --    212.4456                 9.2684                13.3222

                     79                     80                     81
                      A                      A                      A
 Frequencies --   2871.6753              2872.1925              2891.7823
 Red. masses --      1.0591                 1.0589                 1.0581
 Frc consts  --      5.1458                 5.1468                 5.2133
 IR Inten    --    209.4583                27.4156               259.9093

                     82                     83                     84
                      A                      A                      A
 Frequencies --   2893.7613              3002.6205              3002.7975
 Red. masses --      1.0580                 1.0771                 1.0827
 Frc consts  --      5.2197                 5.7215                 5.7517
 IR Inten    --     69.8348                16.7728                74.3674

                     85                     86                     87
                      A                      A                      A
 Frequencies --   3004.7444              3005.8947              3061.1975
 Red. masses --      1.0735                 1.0787                 1.1023
 Frc consts  --      5.7105                 5.7423                 6.0861
 IR Inten    --     37.9161                23.2961                13.1219

                     88                     89                     90
                      A                      A                      A
 Frequencies --   3061.2243              3112.1482              3113.1008
 Red. masses --      1.1022                 1.0852                 1.0853
 Frc consts  --      6.0857                 6.1926                 6.1968
 IR Inten    --     20.3141                 5.9997                 0.0807

                     91                     92                     93
                      A                      A                      A
 Frequencies --   3114.4927              3114.7545              3129.0679
 Red. masses --      1.0945                 1.0945                 1.0946
 Frc consts  --      6.2554                 6.2562                 6.3142
 IR Inten    --      4.0513                 7.9233                 9.8040

                     94                     95                     96
                      A                      A                      A
 Frequencies --   3130.7642              3150.5964              3150.7386
 Red. masses --      1.0937                 1.0916                 1.0914
 Frc consts  --      6.3162                 6.3839                 6.3835
 IR Inten    --     47.9592                22.2351                 0.9061

 - Thermochemistry -
 -------------------
 Temperature   298.150 Kelvin.  Pressure   1.00000 Atm.
 Atom     1 has atomic number  6 and mass  12.00000

 Molecular mass:   214.14700 amu.
 Principal axes and moments of inertia in atomic units:
                           1         2         3
     Eigenvalues --  2836.324542892.441135052.35665
           X            1.00000   0.00007   0.00000
           Y           -0.00007   1.00000  -0.00176
           Z           -0.00000   0.00176   1.00000
 This molecule is an asymmetric top.
 Rotational symmetry number  1.
 Warning -- assumption of classical behavior for rotation
           may cause significant error
 Rotational temperatures (Kelvin)      0.03054     0.02994     0.01714
 Rotational constants (GHZ):           0.63630     0.62395     0.35721
 Zero-point vibrational energy     748944.8 (Joules/Mol)
                                  179.00210 (Kcal/Mol)
 Warning -- explicit consideration of  25 degrees of freedom as
           vibrations may cause significant error
 Vibrational temperatures:     84.54    90.46   121.07   175.03   175.32
          (Kelvin)            199.59   239.77   295.75   347.00   385.37
                              421.68   442.06   442.40   469.32   500.05
                              505.05   544.25   632.28   666.89   672.85
                              739.65   745.57   761.93   765.83   889.98
                              903.24   933.34  1053.21  1059.54  1083.49
                             1107.93  1131.43  1188.97  1216.64  1282.80
                             1325.52  1338.44  1348.10  1480.63  1488.14
                             1514.07  1514.69  1550.41  1554.08  1580.31
                             1588.95  1609.45  1612.11  1656.42  1661.55
                             1706.03  1722.40  1730.18  1754.50  1761.26
                             1897.76  1906.40  1959.10  1963.02  1990.02
                             2008.16  2011.10  2034.13  2041.31  2051.08
                             2055.13  2060.36  2071.84  2076.50  2081.05
                             2090.22  2099.65  2126.77  2130.91  2181.36
                             2270.19  2292.83  2306.74  4131.70  4132.44
                             4160.62  4163.47  4320.10  4320.35  4323.15
                             4324.81  4404.37  4404.41  4477.68  4479.05
                             4481.05  4481.43  4502.03  4504.47  4533.00
                             4533.20

 Zero-point correction=                           0.285258 (Hartree/Particle)
 Thermal correction to Energy=                    0.300737
 Thermal correction to Enthalpy=                  0.301681
 Thermal correction to Gibbs Free Energy=         0.243743
 Sum of electronic and zero-point Energies=           -652.760030
 Sum of electronic and thermal Energies=              -652.744552
 Sum of electronic and thermal Enthalpies=            -652.743608
 Sum of electronic and thermal Free Energies=         -652.801545

                     E (Thermal)             CV                S
                      KCal/Mol        Cal/Mol-Kelvin    Cal/Mol-Kelvin
 Total                  188.715             61.284            121.940
 Electronic               0.000              0.000              0.000
 Translational            0.889              2.981             41.988
 Rotational               0.889              2.981             32.094
 Vibrational            186.938             55.323             47.857
 Vibration     1          0.596              1.974              4.498
 Vibration     2          0.597              1.972              4.365
 Vibration     3          0.601              1.960              3.792
 Vibration     4          0.609              1.931              3.074
 Vibration     5          0.609              1.931              3.071
 Vibration     6          0.614              1.915              2.821
 Vibration     7          0.624              1.883              2.473
 Vibration     8          0.640              1.832              2.083
 Vibration     9          0.658              1.777              1.794
 Vibration    10          0.673              1.732              1.610
 Vibration    11          0.688              1.687              1.456
 Vibration    12          0.697              1.660              1.377
 Vibration    13          0.697              1.659              1.376
 Vibration    14          0.710              1.623              1.279
 Vibration    15          0.725              1.580              1.177
 Vibration    16          0.728              1.573              1.162
 Vibration    17          0.749              1.516              1.046
 Vibration    18          0.799              1.384              0.828
 Vibration    19          0.821              1.331              0.756
 Vibration    20          0.825              1.322              0.744
 Vibration    21          0.869              1.219              0.624
 Vibration    22          0.873              1.210              0.614
 Vibration    23          0.885              1.185              0.588
 Vibration    24          0.887              1.179              0.582
 Vibration    25          0.978              0.993              0.419

 Optimization completed.
    -- Stationary point found.
 Normal termination of Gaussian 09 at Thu Jun 20 14:47:03 2024.
