 Gaussian 09, Revision E.01,
 Gaussian 09:  ES64L-G09RevE.01 30-Nov-2015

 -----------------------------------------------------
 # opt freq B2PLYP/6-31+g(d,p) EmpiricalDispersion=GD3
 -----------------------------------------------------

 ----------
 [No Title]
 ----------
 Symbolic Z-matrix:
 Charge =  0 Multiplicity = 1

 SCF Done:  E(RB2PLYP) =  -652.405278660     A.U. after   15 cycles
 E2(B2PLYP) =    -0.7545814728D+00 E(B2PLYP) =    -0.65315986013241D+03
 SCF Done:  E(RB2PLYP) =  -652.404886664     A.U. after   13 cycles
 E2(B2PLYP) =    -0.7550876108D+00 E(B2PLYP) =    -0.65315997427457D+03
 SCF Done:  E(RB2PLYP) =  -652.404481797     A.U. after   13 cycles
 E2(B2PLYP) =    -0.7546954553D+00 E(B2PLYP) =    -0.65315917725272D+03
 SCF Done:  E(RB2PLYP) =  -652.405327060     A.U. after   13 cycles
 E2(B2PLYP) =    -0.7548030925D+00 E(B2PLYP) =    -0.65316013015223D+03
 SCF Done:  E(RB2PLYP) =  -652.405410763     A.U. after   14 cycles
 E2(B2PLYP) =    -0.7548056167D+00 E(B2PLYP) =    -0.65316021637969D+03
 SCF Done:  E(RB2PLYP) =  -652.405381133     A.U. after   12 cycles
 E2(B2PLYP) =    -0.7548131930D+00 E(B2PLYP) =    -0.65316019432594D+03
 SCF Done:  E(RB2PLYP) =  -652.405370588     A.U. after   11 cycles
 E2(B2PLYP) =    -0.7548277714D+00 E(B2PLYP) =    -0.65316019835916D+03
 SCF Done:  E(RB2PLYP) =  -652.405375966     A.U. after   10 cycles
 E2(B2PLYP) =    -0.7548230408D+00 E(B2PLYP) =    -0.65316019900640D+03
 SCF Done:  E(RB2PLYP) =  -652.405386158     A.U. after   10 cycles
 E2(B2PLYP) =    -0.7548130274D+00 E(B2PLYP) =    -0.65316019918521D+03
 SCF Done:  E(RB2PLYP) =  -652.405395214     A.U. after   10 cycles
 E2(B2PLYP) =    -0.7548038638D+00 E(B2PLYP) =    -0.65316019907824D+03
 SCF Done:  E(RB2PLYP) =  -652.405396643     A.U. after    9 cycles
 E2(B2PLYP) =    -0.7548026955D+00 E(B2PLYP) =    -0.65316019933850D+03
 Optimization completed.
    -- Stationary point found.
 Normal termination of Gaussian 09 at Wed Dec 18 02:58:38 2024.

 ----------------------------------------------------------------------
 #N Geom=AllCheck Guess=TCheck SCRF=Check GenChk RB2PLYP(FC)/6-31+G(d,p
 ) Freq
 ----------------------------------------------------------------------

 Structure from the checkpoint file:  "B2PLYPD3DMAN.chk"
 ----------
 [No Title]
 ----------
 Charge =  0 Multiplicity = 1

                         Standard orientation:
 ---------------------------------------------------------------------
 Center     Atomic      Atomic             Coordinates (Angstroms)
 Number     Number       Type             X           Y           Z
 ---------------------------------------------------------------------
      1          6           0        0.683365   -2.438876   -0.218691
      2          6           0        2.086816   -2.398211   -0.355060
      3          6           0        2.756969   -1.208593   -0.200895
      4          6           0        2.037162    0.000696   -0.000006
      5          6           0        0.597833    0.000216   -0.000010
      6          6           0       -0.066792   -1.288606    0.009386
      7          6           0        2.756155    1.210466    0.200902
      8          6           0        2.085182    2.399625    0.355075
      9          6           0        0.681707    2.439353    0.218696
     10          6           0       -0.067679    1.288579   -0.009400
     11          7           0       -1.455651   -1.374640    0.255207
     12          7           0       -1.456605    1.373639   -0.255221
     13          6           0       -1.889064   -0.910247    1.572660
     14          6           0       -2.129844   -2.603829   -0.123090
     15          6           0       -2.131718    2.602306    0.123142
     16          6           0       -1.889668    0.909015   -1.572709
     17          1           0        0.194713   -3.403579   -0.228261
     18          1           0        2.631550   -3.320243   -0.525201
     19          1           0        3.840482   -1.171006   -0.231541
     20          1           0        3.839693    1.173616    0.231564
     21          1           0        2.629287    3.322024    0.525234
     22          1           0        0.192417    3.403731    0.228277
     23          1           0       -1.326650   -0.030351    1.870484
     24          1           0       -2.947877   -0.642577    1.535296
     25          1           0       -1.747355   -1.694410    2.334045
     26          1           0       -1.881757   -2.867177   -1.152406
     27          1           0       -1.887447   -3.459989    0.528943
     28          1           0       -3.207415   -2.435861   -0.060348
     29          1           0       -1.883847    2.865775    1.152478
     30          1           0       -1.889954    3.458686   -0.528837
     31          1           0       -3.209162    2.433539    0.060374
     32          1           0       -1.326614    0.029548   -1.870584
     33          1           0       -2.948287    0.640576   -1.535371
     34          1           0       -1.748521    1.693330   -2.334043
 ---------------------------------------------------------------------

 SCF Done:  E(RB2PLYP) =  -652.405396643     A.U. after    1 cycles
 E2(B2PLYP) =    -0.7548026961D+00 E(B2PLYP) =    -0.65316019933911D+03
 E2(B2PLYP) =    -0.7548026960D+00 E(B2PLYP) =    -0.65316019933904D+03

 The electronic state is 1-A.
 Alpha  occ. eigenvalues --  -14.85167 -14.85167 -10.66818 -10.66818 -10.64548
 Alpha  occ. eigenvalues --  -10.64547 -10.63875 -10.63875 -10.63841 -10.63744
 Alpha  occ. eigenvalues --  -10.62812 -10.62812 -10.62107 -10.62105 -10.62063
 Alpha  occ. eigenvalues --  -10.62062  -1.07542  -1.05735  -0.98236  -0.93094
 Alpha  occ. eigenvalues --   -0.87617  -0.85282  -0.82909  -0.81263  -0.81053
 Alpha  occ. eigenvalues --   -0.75098  -0.74775  -0.70401  -0.68814  -0.64216
 Alpha  occ. eigenvalues --   -0.59607  -0.58770  -0.57734  -0.55124  -0.54293
 Alpha  occ. eigenvalues --   -0.53217  -0.52547  -0.52157  -0.51086  -0.48857
 Alpha  occ. eigenvalues --   -0.47737  -0.47263  -0.45932  -0.45682  -0.45125
 Alpha  occ. eigenvalues --   -0.44341  -0.43862  -0.43271  -0.43066  -0.43025
 Alpha  occ. eigenvalues --   -0.40143  -0.39676  -0.37658  -0.33470  -0.30911
 Alpha  occ. eigenvalues --   -0.27433  -0.24832  -0.21964
 Alpha virt. eigenvalues --    0.01321   0.03096   0.03430   0.03852   0.04304
 Alpha virt. eigenvalues --    0.04954   0.05539   0.05671   0.06515   0.07304
 Alpha virt. eigenvalues --    0.07774   0.07913   0.07931   0.08283   0.08942

 Mulliken charges:
               1
     1  C   -0.292817
     2  C   -0.228515
     3  C   -0.339121
     4  C    0.168768
     5  C    0.082530
     6  C   -0.078112
     7  C   -0.339152
     8  C   -0.228486
     9  C   -0.292887
    10  C   -0.078090
    11  N   -0.031549
    12  N   -0.031578
    13  C   -0.161119
    14  C   -0.206008
    15  C   -0.206002
    16  C   -0.161112
    17  H    0.134837
    18  H    0.141015
    19  H    0.139678
    20  H    0.139680
    21  H    0.141014
    22  H    0.134839
    23  H    0.147518
    24  H    0.126972
    25  H    0.119699
    26  H    0.142597
    27  H    0.126303
    28  H    0.133003
    29  H    0.142597
    30  H    0.126302
    31  H    0.133004
    32  H    0.147518
    33  H    0.126973
    34  H    0.119700
 Sum of Mulliken charges =  -0.00000

 Dipole moment (field-independent basis, Debye):
    X=             -1.4644    Y=             -0.0005    Z=              0.0000  Tot=              1.4644
 Quadrupole moment (field-independent basis, Debye-Ang):
   XX=            -90.9129   YY=            -89.9852   ZZ=           -102.2045
   XY=             -0.0004   XZ=             -0.0006   YZ=              1.7303

  Exact polarizability: 218.502  -0.002 223.996  -0.002   6.331 123.427
 Approx polarizability: 251.816  -0.007 270.802  -0.005  14.306 152.661

                      1                      2                      3
                      A                      A                      A
 Frequencies --     52.2859                98.8328               113.1840
 Red. masses --      3.7769                 2.4406                 1.8610
 Frc consts  --      0.0061                 0.0140                 0.0140
 IR Inten    --      0.4877                 0.3580                 3.9731

                      4                      5                      6
                      A                      A                      A
 Frequencies --    126.0920               128.6702               149.9527
 Red. masses --      3.1369                 3.0004                 2.8980
 Frc consts  --      0.0294                 0.0293                 0.0384
 IR Inten    --      1.0779                 0.1331                 0.9395

                      7                      8                      9
                      A                      A                      A
 Frequencies --    178.4802               212.0608               250.3720
 Red. masses --      1.6677                 2.5835                 1.4531
 Frc consts  --      0.0313                 0.0685                 0.0537
 IR Inten    --      0.8409                 0.0020                 0.9135

                     10                     11                     12
                      A                      A                      A
 Frequencies --    273.2304               308.5793               321.8216
 Red. masses --      1.8475                 2.1676                 1.9705
 Frc consts  --      0.0813                 0.1216                 0.1202
 IR Inten    --      4.3122                 4.1671                 0.9410

                     13                     14                     15
                      A                      A                      A
 Frequencies --    324.0468               336.8651               362.5287
 Red. masses --      1.5485                 1.5294                 2.5713
 Frc consts  --      0.0958                 0.1023                 0.1991
 IR Inten    --      1.3145                 0.1903                 1.5288

                     16                     17                     18
                      A                      A                      A
 Frequencies --    368.2916               394.8577               453.2801
 Red. masses --      3.4912                 2.8684                 2.9821
 Frc consts  --      0.2790                 0.2635                 0.3610
 IR Inten    --      4.5731                 3.3675                 0.8830

                     19                     20                     21
                      A                      A                      A
 Frequencies --    467.3239               480.9308               520.1327
 Red. masses --      3.7417                 4.6280                 4.1116
 Frc consts  --      0.4815                 0.6307                 0.6554
 IR Inten    --      2.3243                 5.0242                 2.1518

                     22                     23                     24
                      A                      A                      A
 Frequencies --    536.9920               543.8564               550.0771
 Red. masses --      4.2744                 4.0801                 5.3890
 Frc consts  --      0.7262                 0.7110                 0.9607
 IR Inten    --      5.1367                 0.0563                 3.0054

                     25                     26                     27
                      A                      A                      A
 Frequencies --    617.7345               636.7549               654.2727
 Red. masses --      5.3909                 3.9872                 4.2159
 Frc consts  --      1.2120                 0.9525                 1.0633
 IR Inten    --      4.7129                 1.3181                 7.0633

                     28                     29                     30
                      A                      A                      A
 Frequencies --    686.9845               757.2859               774.3876
 Red. masses --      6.7231                 1.2749                 5.3012
 Frc consts  --      1.8694                 0.4308                 1.8730
 IR Inten    --      4.4328                 0.4311                 0.3902

                     31                     32                     33
                      A                      A                      A
 Frequencies --    786.8932               794.7695               858.2468
 Red. masses --      1.2830                 5.3268                 1.3763
 Frc consts  --      0.4681                 1.9824                 0.5973
 IR Inten    --    115.9804                 2.7597                 0.5405

                     34                     35                     36
                      A                      A                      A
 Frequencies --    871.9229               908.2576               938.9796
 Red. masses --      1.4353                 4.4878                 1.2190
 Frc consts  --      0.6429                 2.1812                 0.6333
 IR Inten    --      1.9603                 1.9555                 0.5581

                     37                     38                     39
                      A                      A                      A
 Frequencies --    950.4335               958.3146              1055.3161
 Red. masses --      1.2434                 3.7324                 2.7117
 Frc consts  --      0.6618                 2.0196                 1.7793
 IR Inten    --      0.1272                35.5151                83.4463

                     40                     41                     42
                      A                      A                      A
 Frequencies --   1060.1849              1090.8225              1090.9553
 Red. masses --      4.3973                 1.4769                 1.4618
 Frc consts  --      2.9120                 1.0354                 1.0251
 IR Inten    --     27.5578                20.5613                 7.3328

                     43                     44                     45
                      A                      A                      A
 Frequencies --   1125.9802              1126.8917              1137.3467
 Red. masses --      1.3282                 1.4865                 1.6180
 Frc consts  --      0.9921                 1.1122                 1.2331
 IR Inten    --     11.5918                 5.3453                 0.2005

                     46                     47                     48
                      A                      A                      A
 Frequencies --   1144.1783              1177.3288              1180.9479
 Red. masses --      1.6939                 1.4528                 1.4389
 Frc consts  --      1.3065                 1.1864                 1.1824
 IR Inten    --      3.8880                 2.0419                46.6170

                     49                     50                     51
                      A                      A                      A
 Frequencies --   1195.7368              1204.8036              1229.2080
 Red. masses --      1.3141                 1.3058                 2.8770
 Frc consts  --      1.1070                 1.1168                 2.5612
 IR Inten    --      1.2505                 4.2924                29.9829

                     52                     53                     54
                      A                      A                      A
 Frequencies --   1238.2496              1243.7888              1259.4211
 Red. masses --      1.5905                 1.9311                 2.8670
 Frc consts  --      1.4368                 1.7601                 2.6793
 IR Inten    --      4.7108                 7.7383                16.9708

                     55                     56                     57
                      A                      A                      A
 Frequencies --   1263.2045              1360.0263              1368.1533
 Red. masses --      2.4144                 3.1999                 2.0147
 Frc consts  --      2.2699                 3.4872                 2.2220
 IR Inten    --     18.7300                20.8204                44.1599

                     58                     59                     60
                      A                      A                      A
 Frequencies --   1393.2693              1397.7362              1425.2052
 Red. masses --      7.0076                 3.8670                 3.4413
 Frc consts  --      8.0147                 4.4511                 4.1184
 IR Inten    --     25.0830                13.6188                72.1254

                     61                     62                     63
                      A                      A                      A
 Frequencies --   1465.0993              1465.9983              1474.1691
 Red. masses --      1.1647                 1.1624                 1.7938
 Frc consts  --      1.4729                 1.4719                 2.2968
 IR Inten    --      0.0117                 1.6448                26.8212

                     64                     65                     66
                      A                      A                      A
 Frequencies --   1485.4674              1495.3253              1499.7092
 Red. masses --      1.5053                 1.1853                 1.0957
 Frc consts  --      1.9570                 1.5615                 1.4519
 IR Inten    --      5.7974                 0.1052                 0.7735

                     67                     68                     69
                      A                      A                      A
 Frequencies --   1502.5510              1507.6046              1516.8463
 Red. masses --      1.0984                 1.3018                 1.0949
 Frc consts  --      1.4610                 1.7433                 1.4843
 IR Inten    --      4.1828                11.1422                17.5431

                     70                     71                     72
                      A                      A                      A
 Frequencies --   1517.4183              1523.1237              1523.5795
 Red. masses --      1.0527                 1.1856                 1.0533
 Frc consts  --      1.4281                 1.6206                 1.4406
 IR Inten    --     23.5464                13.5412                 4.7459

                     73                     74                     75
                      A                      A                      A
 Frequencies --   1544.3984              1547.4451              1562.1454
 Red. masses --      1.0768                 1.0849                 3.5853
 Frc consts  --      1.5132                 1.5306                 5.1548
 IR Inten    --      7.5901                22.2312                25.0624

                     76                     77                     78
                      A                      A                      A
 Frequencies --   1627.6106              1645.7739              1661.6654
 Red. masses --      5.4469                 5.1681                 5.7980
 Frc consts  --      8.5015                 8.2474                 9.4323
 IR Inten    --    186.6650                 0.1868                 9.0768

                     79                     80                     81
                      A                      A                      A
 Frequencies --   2976.2272              2976.6542              2989.5967
 Red. masses --      1.0575                 1.0574                 1.0578
 Frc consts  --      5.5188                 5.5199                 5.5706
 IR Inten    --    169.2996                15.0381               262.5925

                     82                     83                     84
                      A                      A                      A
 Frequencies --   2991.2491              3104.1454              3104.2716
 Red. masses --      1.0575                 1.0748                 1.0751
 Frc consts  --      5.5750                 6.1021                 6.1042
 IR Inten    --     44.5312                22.2723                41.4581

                     85                     86                     87
                      A                      A                      A
 Frequencies --   3111.6410              3111.8218              3159.0545
 Red. masses --      1.0828                 1.0829                 1.1035
 Frc consts  --      6.1771                 6.1784                 6.4883
 IR Inten    --     67.1729                17.7354                18.4148

                     88                     89                     90
                      A                      A                      A
 Frequencies --   3159.0656              3205.8282              3208.0127
 Red. masses --      1.1034                 1.0865                 1.0864
 Frc consts  --      6.4878                 6.5790                 6.5872
 IR Inten    --     23.1269                 3.7733                 0.1045

                     91                     92                     93
                      A                      A                      A
 Frequencies --   3210.0450              3210.3264              3224.3530
 Red. masses --      1.0963                 1.0961                 1.0955
 Frc consts  --      6.6556                 6.6556                 6.7103
 IR Inten    --      7.4239                12.2643                12.5325

                     94                     95                     96
                      A                      A                      A
 Frequencies --   3226.4463              3252.0633              3252.1388
 Red. masses --      1.0950                 1.0917                 1.0915
 Frc consts  --      6.7160                 6.8025                 6.8019
 IR Inten    --     46.4269                20.7275                 1.4217

 - Thermochemistry -
 -------------------
 Temperature   298.150 Kelvin.  Pressure   1.00000 Atm.
 Atom     1 has atomic number  6 and mass  12.00000

 Molecular mass:   214.14700 amu.
 Principal axes and moments of inertia in atomic units:
                           1         2         3
     Eigenvalues --  2829.423532874.728725036.41837
           X            1.00000  -0.00008   0.00000
           Y            0.00008   1.00000  -0.00190
           Z           -0.00000   0.00190   1.00000
 This molecule is an asymmetric top.
 Rotational symmetry number  1.
 Warning -- assumption of classical behavior for rotation
           may cause significant error
 Rotational temperatures (Kelvin)      0.03061     0.03013     0.01720
 Rotational constants (GHZ):           0.63785     0.62780     0.35834
 Zero-point vibrational energy     774914.6 (Joules/Mol)
                                  185.20904 (Kcal/Mol)
 Warning -- explicit consideration of  25 degrees of freedom as
           vibrations may cause significant error
 Vibrational temperatures:     75.23   142.20   162.85   181.42   185.13
          (Kelvin)            215.75   256.79   305.11   360.23   393.12
                              443.98   463.03   466.23   484.67   521.60
                              529.89   568.11   652.17   672.37   691.95
                              748.35   772.61   782.49   791.44   888.78
                              916.15   941.35   988.42  1089.56  1114.17
                             1132.16  1143.49  1234.82  1254.50  1306.78
                             1350.98  1367.46  1378.80  1518.36  1525.37
                             1569.45  1569.64  1620.03  1621.34  1636.39
                             1646.22  1693.91  1699.12  1720.40  1733.44
                             1768.55  1781.56  1789.53  1812.02  1817.47
                             1956.77  1968.46  2004.60  2011.03  2050.55
                             2107.95  2109.24  2121.00  2137.25  2151.44
                             2157.74  2161.83  2169.10  2182.40  2183.22
                             2191.43  2192.09  2222.04  2226.43  2247.58
                             2341.77  2367.90  2390.76  4282.12  4282.74
                             4301.36  4303.73  4466.17  4466.35  4476.95
                             4477.21  4545.17  4545.19  4612.47  4615.61
                             4618.53  4618.94  4639.12  4642.13  4678.99
                             4679.10

 Zero-point correction=                           0.295149 (Hartree/Particle)
 Thermal correction to Energy=                    0.310109
 Thermal correction to Enthalpy=                  0.311053
 Thermal correction to Gibbs Free Energy=         0.254502
 Sum of electronic and zero-point Energies=           -652.865050
 Sum of electronic and thermal Energies=              -652.850091
 Sum of electronic and thermal Enthalpies=            -652.849147
 Sum of electronic and thermal Free Energies=         -652.905698

                     E (Thermal)             CV                S
                      KCal/Mol        Cal/Mol-Kelvin    Cal/Mol-Kelvin
 Total                  194.596             59.581            119.021
 Electronic               0.000              0.000              0.000
 Translational            0.889              2.981             41.988
 Rotational               0.889              2.981             32.083
 Vibrational            192.819             53.620             44.951
 Vibration     1          0.596              1.977              4.729
 Vibration     2          0.604              1.950              3.477
 Vibration     3          0.607              1.939              3.214
 Vibration     4          0.611              1.927              3.005
 Vibration     5          0.611              1.925              2.966
 Vibration     6          0.618              1.903              2.673
 Vibration     7          0.629              1.869              2.344
 Vibration     8          0.643              1.823              2.026
 Vibration     9          0.663              1.762              1.728
 Vibration    10          0.676              1.723              1.576
 Vibration    11          0.698              1.657              1.370
 Vibration    12          0.707              1.632              1.301
 Vibration    13          0.709              1.627              1.290
 Vibration    14          0.718              1.602              1.227
 Vibration    15          0.736              1.549              1.111
 Vibration    16          0.741              1.537              1.087
 Vibration    17          0.762              1.481              0.982
 Vibration    18          0.812              1.354              0.786
 Vibration    19          0.825              1.323              0.745
 Vibration    20          0.837              1.292              0.708
 Vibration    21          0.875              1.205              0.610
 Vibration    22          0.892              1.168              0.572
 Vibration    23          0.899              1.153              0.557
 Vibration    24          0.905              1.140              0.544
 Vibration    25          0.978              0.994              0.420

 Normal termination of Gaussian 09 at Wed Dec 18 07:29:45 2024.
