 Gaussian 09, Revision E.01,
 Gaussian 09:  ES64L-G09RevE.01 30-Nov-2015

 -----------------------------------------------------
 # opt freq B2PLYP/6-31+g(d,p) EmpiricalDispersion=GD3
 -----------------------------------------------------

 ----------
 [No Title]
 ----------
 Symbolic Z-matrix:
 Charge =  1 Multiplicity = 1

 SCF Done:  E(RB2PLYP) =  -652.813771364     A.U. after   15 cycles
 E2(B2PLYP) =    -0.7528516037D+00 E(B2PLYP) =    -0.65356662296732D+03
 SCF Done:  E(RB2PLYP) =  -652.813786769     A.U. after   12 cycles
 E2(B2PLYP) =    -0.7530379137D+00 E(B2PLYP) =    -0.65356682468264D+03
 SCF Done:  E(RB2PLYP) =  -652.813746147     A.U. after   12 cycles
 E2(B2PLYP) =    -0.7530076533D+00 E(B2PLYP) =    -0.65356675380013D+03
 SCF Done:  E(RB2PLYP) =  -652.813904142     A.U. after   10 cycles
 E2(B2PLYP) =    -0.7529634462D+00 E(B2PLYP) =    -0.65356686758797D+03
 SCF Done:  E(RB2PLYP) =  -652.813939543     A.U. after   11 cycles
 E2(B2PLYP) =    -0.7528738965D+00 E(B2PLYP) =    -0.65356681343932D+03
 SCF Done:  E(RB2PLYP) =  -652.814043979     A.U. after   10 cycles
 E2(B2PLYP) =    -0.7528315221D+00 E(B2PLYP) =    -0.65356687550066D+03
 SCF Done:  E(RB2PLYP) =  -652.814036740     A.U. after   10 cycles
 E2(B2PLYP) =    -0.7528555532D+00 E(B2PLYP) =    -0.65356689229315D+03
 SCF Done:  E(RB2PLYP) =  -652.814069185     A.U. after    9 cycles
 E2(B2PLYP) =    -0.7528250297D+00 E(B2PLYP) =    -0.65356689421458D+03
 Optimization completed.
    -- Stationary point found.
 Normal termination of Gaussian 09 at Thu Dec 19 05:59:50 2024.

 ----------------------------------------------------------------------
 #N Geom=AllCheck Guess=TCheck SCRF=Check GenChk RB2PLYP(FC)/6-31+G(d,p
 ) Freq
 ----------------------------------------------------------------------

 Structure from the checkpoint file:  "B2PLYPDMAND3yang.chk"
 ----------
 [No Title]
 ----------
 Charge =  1 Multiplicity = 1

                         Standard orientation:
 ---------------------------------------------------------------------
 Center     Atomic      Atomic             Coordinates (Angstroms)
 Number     Number       Type             X           Y           Z
 ---------------------------------------------------------------------
      1          6           0        0.754228   -2.440646    0.000005
      2          6           0        2.165661   -2.399901   -0.000037
      3          6           0        2.813478   -1.184922   -0.000043
      4          6           0        2.088469    0.036739   -0.000026
      5          6           0        0.649612    0.016794   -0.000009
      6          6           0        0.029141   -1.270017    0.000023
      7          6           0        2.773299    1.280676   -0.000028
      8          6           0        2.078364    2.468817   -0.000022
      9          6           0        0.665998    2.458614   -0.000029
     10          6           0       -0.039766    1.272324   -0.000027
     11          7           0       -1.447425   -1.328669    0.000131
     12          7           0       -1.500671    1.273253   -0.000086
     13          6           0       -2.007360   -1.946242   -1.239965
     14          6           0       -2.007145   -1.946097    1.240401
     15          6           0       -2.065472    1.888146    1.223348
     16          6           0       -2.065339    1.887950   -1.223681
     17          1           0        0.249120   -3.399695    0.000038
     18          1           0        2.727361   -3.325315   -0.000054
     19          1           0        3.896727   -1.144458   -0.000058
     20          1           0        3.857229    1.277976   -0.000037
     21          1           0        2.606463    3.414226   -0.000023
     22          1           0        0.130202    3.400772   -0.000051
     23          1           0       -1.707929   -0.249135    0.000103
     24          1           0       -3.090865   -1.833173   -1.226149
     25          1           0       -1.586115   -1.433519   -2.102205
     26          1           0       -1.747394   -3.002707   -1.279015
     27          1           0       -3.090653   -1.833031    1.226762
     28          1           0       -1.585748   -1.433270    2.102505
     29          1           0       -1.747162   -3.002556    1.279528
     30          1           0       -1.634013    1.406312    2.100677
     31          1           0       -1.856273    2.961024    1.274081
     32          1           0       -3.146762    1.742225    1.224901
     33          1           0       -1.633796    1.405964   -2.100886
     34          1           0       -3.146631    1.742048   -1.225323
     35          1           0       -1.856107    2.960815   -1.274568
 ---------------------------------------------------------------------

 SCF Done:  E(RB2PLYP) =  -652.814069185     A.U. after    1 cycles
 E2(B2PLYP) =    -0.7528250279D+00 E(B2PLYP) =    -0.65356689421279D+03
 E2(B2PLYP) =    -0.7528250278D+00 E(B2PLYP) =    -0.65356689421272D+03

 The electronic state is 1-A.
 Alpha  occ. eigenvalues --  -15.08928 -15.01916 -10.81921 -10.81378 -10.81378
 Alpha  occ. eigenvalues --  -10.80376 -10.78919 -10.78286 -10.78285 -10.77849
 Alpha  occ. eigenvalues --  -10.77634 -10.76578 -10.76451 -10.76325 -10.75905
 Alpha  occ. eigenvalues --  -10.75792  -1.27474  -1.21142  -1.13124  -1.07508
 Alpha  occ. eigenvalues --   -1.02581  -0.99562  -0.98982  -0.97066  -0.95419
 Alpha  occ. eigenvalues --   -0.92629  -0.88991  -0.85940  -0.83893  -0.80608
 Alpha  occ. eigenvalues --   -0.76232  -0.74099  -0.73843  -0.71055  -0.70265
 Alpha  occ. eigenvalues --   -0.69628  -0.66908  -0.66436  -0.66384  -0.64246
 Alpha  occ. eigenvalues --   -0.63431  -0.63369  -0.61866  -0.61596  -0.60669
 Alpha  occ. eigenvalues --   -0.60094  -0.59196  -0.58612  -0.58077  -0.57255
 Alpha  occ. eigenvalues --   -0.57148  -0.54433  -0.53620  -0.51077  -0.46227
 Alpha  occ. eigenvalues --   -0.44686  -0.41363  -0.38155
 Alpha virt. eigenvalues --   -0.13258  -0.10010  -0.08887  -0.06802  -0.06658
 Alpha virt. eigenvalues --   -0.06260  -0.05566  -0.05071  -0.04640  -0.04206
 Alpha virt. eigenvalues --   -0.03865  -0.03831  -0.02655  -0.02304  -0.01968

 Mulliken charges:
               1
     1  C   -0.081053
     2  C   -0.205504
     3  C   -0.168044
     4  C   -0.204283
     5  C    0.026488
     6  C   -0.082155
     7  C   -0.201114
     8  C   -0.187096
     9  C   -0.098095
    10  C   -0.068609
    11  N   -0.371787
    12  N   -0.444571
    13  C   -0.132677
    14  C   -0.132712
    15  C   -0.127367
    16  C   -0.127415
    17  H    0.160593
    18  H    0.181103
    19  H    0.178179
    20  H    0.175833
    21  H    0.179399
    22  H    0.161150
    23  H    0.511995
    24  H    0.181546
    25  H    0.183995
    26  H    0.183931
    27  H    0.181547
    28  H    0.183996
    29  H    0.183932
    30  H    0.155832
    31  H    0.163170
    32  H    0.160396
    33  H    0.155830
    34  H    0.160395
    35  H    0.163172
 Sum of Mulliken charges =   1.00000

 Dipole moment (field-independent basis, Debye):
    X=             -4.0319    Y=             -1.7841    Z=              0.0002  Tot=              4.4090
 Quadrupole moment (field-independent basis, Debye-Ang):
   XX=            -63.6845   YY=            -64.8627   ZZ=            -92.7786
   XY=              3.4105   XZ=             -0.0007   YZ=             -0.0012

  Exact polarizability: 193.553  -0.823 210.648  -0.001  -0.002 110.260
 Approx polarizability: 226.118  -0.779 268.070  -0.001  -0.001 137.812

                      1                      2                      3
                      A                      A                      A
 Frequencies --     26.4117                76.8770               129.0494
 Red. masses --      3.5209                 2.6613                 3.3419
 Frc consts  --      0.0014                 0.0093                 0.0328
 IR Inten    --      0.0870                 0.1321                 0.3996

                      4                      5                      6
                      A                      A                      A
 Frequencies --    138.8824               169.0231               174.5520
 Red. masses --      2.3873                 2.8793                 3.1568
 Frc consts  --      0.0271                 0.0485                 0.0567
 IR Inten    --      0.2705                17.6773                 3.9083

                      7                      8                      9
                      A                      A                      A
 Frequencies --    186.9779               227.6062               237.6313
 Red. masses --      3.5156                 1.1412                 1.5481
 Frc consts  --      0.0724                 0.0348                 0.0515
 IR Inten    --      0.3455                 0.1042                 1.0910

                     10                     11                     12
                      A                      A                      A
 Frequencies --    246.3362               261.4792               265.9111
 Red. masses --      1.0989                 2.0599                 1.1994
 Frc consts  --      0.0393                 0.0830                 0.0500
 IR Inten    --      0.0081                 2.9140                 0.4935

                     13                     14                     15
                      A                      A                      A
 Frequencies --    278.7377               314.3318               324.4202
 Red. masses --      1.9598                 3.3942                 2.7664
 Frc consts  --      0.0897                 0.1976                 0.1715
 IR Inten    --      0.0330                 0.1793                 1.8794

                     16                     17                     18
                      A                      A                      A
 Frequencies --    375.1885               435.0874               453.2299
 Red. masses --      3.7794                 3.2252                 2.9457
 Frc consts  --      0.3135                 0.3597                 0.3565
 IR Inten    --     12.2717                21.7190                 0.4202

                     19                     20                     21
                      A                      A                      A
 Frequencies --    459.9392               503.2454               515.2974
 Red. masses --      3.6416                 5.5403                 3.9427
 Frc consts  --      0.4539                 0.8267                 0.6168
 IR Inten    --      0.3692                16.4876                 0.0311

                     22                     23                     24
                      A                      A                      A
 Frequencies --    531.5522               538.2699               575.1429
 Red. masses --      4.1709                 5.0285                 3.8124
 Frc consts  --      0.6943                 0.8584                 0.7430
 IR Inten    --     15.2701                 2.6679                 3.6207

                     25                     26                     27
                      A                      A                      A
 Frequencies --    606.9402               641.6720               679.6551
 Red. masses --      5.1823                 4.1642                 3.6292
 Frc consts  --      1.1248                 1.0102                 0.9877
 IR Inten    --      0.0182                 0.9448                61.3690

                     28                     29                     30
                      A                      A                      A
 Frequencies --    684.3879               773.8348               779.3665
 Red. masses --      6.6991                 4.8503                 1.2441
 Frc consts  --      1.8487                 1.7113                 0.4452
 IR Inten    --     11.4859                 1.1598                 0.3483

                     31                     32                     33
                      A                      A                      A
 Frequencies --    797.4175               810.6075               884.1315
 Red. masses --      5.3539                 1.2881                 4.1442
 Frc consts  --      2.0058                 0.4987                 1.9086
 IR Inten    --      0.3542                85.9434                40.8241

                     34                     35                     36
                      A                      A                      A
 Frequencies --    908.1286               920.6425               925.9054
 Red. masses --      1.3327                 3.8360                 1.3926
 Frc consts  --      0.6475                 1.9156                 0.7034
 IR Inten    --      0.2826                30.8070                 1.2292

                     37                     38                     39
                      A                      A                      A
 Frequencies --    965.7965               979.4967              1018.3550
 Red. masses --      1.2383                 1.2588                 3.5065
 Frc consts  --      0.6805                 0.7116                 2.1425
 IR Inten    --      0.0170                 0.1316                31.6170

                     40                     41                     42
                      A                      A                      A
 Frequencies --   1026.3202              1048.2054              1048.8654
 Red. masses --      2.2024                 4.0438                 1.8781
 Frc consts  --      1.3668                 2.6178                 1.2173
 IR Inten    --     14.1822                14.3316                16.3895

                     43                     44                     45
                      A                      A                      A
 Frequencies --   1102.8565              1114.6224              1121.7696
 Red. masses --      1.1995                 2.1856                 1.8983
 Frc consts  --      0.8596                 1.5999                 1.4074
 IR Inten    --      0.5101                 7.5160                 1.5368

                     46                     47                     48
                      A                      A                      A
 Frequencies --   1127.1194              1194.5630              1196.5161
 Red. masses --      1.2387                 2.0210                 1.3237
 Frc consts  --      0.9272                 1.6991                 1.1166
 IR Inten    --      1.6595                 5.2041                 3.0477

                     49                     50                     51
                      A                      A                      A
 Frequencies --   1200.3663              1210.6942              1217.0434
 Red. masses --      1.4377                 2.6103                 1.4762
 Frc consts  --      1.2205                 2.2543                 1.2883
 IR Inten    --      3.5835                10.1739                 3.6797

                     52                     53                     54
                      A                      A                      A
 Frequencies --   1226.0411              1239.0403              1252.5032
 Red. masses --      1.3198                 1.5440                 1.6472
 Frc consts  --      1.1689                 1.3966                 1.5225
 IR Inten    --     14.2242                26.3707                45.7370

                     55                     56                     57
                      A                      A                      A
 Frequencies --   1260.9331              1291.5298              1313.4108
 Red. masses --      2.0186                 2.2335                 2.4456
 Frc consts  --      1.8910                 2.1951                 2.4856
 IR Inten    --      5.8532                 2.0519                20.9234

                     58                     59                     60
                      A                      A                      A
 Frequencies --   1393.4581              1407.9256              1415.1953
 Red. masses --      2.3237                 4.0288                 5.2583
 Frc consts  --      2.6583                 4.7052                 6.2048
 IR Inten    --     87.2615                17.4025                 3.9899

                     61                     62                     63
                      A                      A                      A
 Frequencies --   1460.6652              1463.0634              1467.2254
 Red. masses --      1.3862                 1.1411                 1.1401
 Frc consts  --      1.7426                 1.4391                 1.4461
 IR Inten    --     89.8572                 0.3962                 6.4546

                     64                     65                     66
                      A                      A                      A
 Frequencies --   1485.6451              1498.2209              1501.0668
 Red. masses --      1.6069                 1.1929                 1.0441
 Frc consts  --      2.0896                 1.5776                 1.3861
 IR Inten    --      2.0170                 0.5851                 0.1008

                     67                     68                     69
                      A                      A                      A
 Frequencies --   1506.1767              1509.2619              1516.2094
 Red. masses --      2.0140                 1.0502                 1.0452
 Frc consts  --      2.6920                 1.4095                 1.4156
 IR Inten    --      1.8184                 1.0689                 4.5973

                     70                     71                     72
                      A                      A                      A
 Frequencies --   1521.4413              1524.6387              1529.8002
 Red. masses --      1.1748                 1.0467                 1.0532
 Frc consts  --      1.6022                 1.4335                 1.4522
 IR Inten    --      4.5080                12.4236                 4.8628

                     73                     74                     75
                      A                      A                      A
 Frequencies --   1532.9178              1541.6834              1549.4368
 Red. masses --      1.0808                 1.0559                 2.6332
 Frc consts  --      1.4963                 1.4786                 3.7246
 IR Inten    --      4.8223                23.1023               119.1493

                     76                     77                     78
                      A                      A                      A
 Frequencies --   1604.0615              1630.2081              1665.8038
 Red. masses --      1.7274                 5.6679                 3.6704
 Frc consts  --      2.6187                 8.8748                 6.0008
 IR Inten    --    261.2700                13.6998                63.1762

                     79                     80                     81
                      A                      A                      A
 Frequencies --   1682.3327              1686.7248              2104.3938
 Red. masses --      1.0840                 5.1118                 1.1191
 Frc consts  --      1.8076                 8.5687                 2.9199
 IR Inten    --      3.5920                83.4418              1162.8139

                     82                     83                     84
                      A                      A                      A
 Frequencies --   3067.4127              3070.5024              3105.3303
 Red. masses --      1.0346                 1.0358                 1.0307
 Frc consts  --      5.7352                 5.7536                 5.8557
 IR Inten    --     20.7869                21.9761                 5.4860

                     85                     86                     87
                      A                      A                      A
 Frequencies --   3108.4643              3151.1253              3151.1693
 Red. masses --      1.0314                 1.1007                 1.1021
 Frc consts  --      5.8719                 6.4395                 6.4481
 IR Inten    --      6.1517                22.3763                 1.3613

                     88                     89                     90
                      A                      A                      A
 Frequencies --   3181.8080              3183.8205              3204.3605
 Red. masses --      1.1057                 1.1062                 1.1079
 Frc consts  --      6.5955                 6.6065                 6.7023
 IR Inten    --      4.4967                19.7013                 0.0421

                     91                     92                     93
                      A                      A                      A
 Frequencies --   3206.3561              3215.9416              3216.5335
 Red. masses --      1.1071                 1.1075                 1.1076
 Frc consts  --      6.7059                 6.7484                 6.7515
 IR Inten    --      7.0825                 0.7699                 2.6766

                     94                     95                     96
                      A                      A                      A
 Frequencies --   3225.9631              3226.7212              3230.5692
 Red. masses --      1.0887                 1.0896                 1.0920
 Frc consts  --      6.6756                 6.6838                 6.7148
 IR Inten    --      0.6637                 3.0962                 0.3618

                     97                     98                     99
                      A                      A                      A
 Frequencies --   3232.5248              3250.1750              3253.2620
 Red. masses --      1.0915                 1.0975                 1.0971
 Frc consts  --      6.7200                 6.8306                 6.8415
 IR Inten    --      5.1011                 2.0221                 1.0289

 - Thermochemistry -
 -------------------
 Temperature   298.150 Kelvin.  Pressure   1.00000 Atm.
 Atom     1 has atomic number  6 and mass  12.00000

 Molecular mass:   215.15482 amu.
 Principal axes and moments of inertia in atomic units:
                           1         2         3
     Eigenvalues --  2838.430312991.440215092.26901
           X            0.99999   0.00379   0.00001
           Y           -0.00379   0.99999   0.00004
           Z           -0.00001  -0.00004   1.00000
 This molecule is an asymmetric top.
 Rotational symmetry number  1.
 Warning -- assumption of classical behavior for rotation
           may cause significant error
 Rotational temperatures (Kelvin)      0.03051     0.02895     0.01701
 Rotational constants (GHZ):           0.63582     0.60330     0.35441
 Zero-point vibrational energy     810431.2 (Joules/Mol)
                                  193.69770 (Kcal/Mol)
 Warning -- explicit consideration of  25 degrees of freedom as
           vibrations may cause significant error
 Vibrational temperatures:     38.00   110.61   185.67   199.82   243.19
          (Kelvin)            251.14   269.02   327.47   341.90   354.42
                              376.21   382.59   401.04   452.25   466.77
                              539.81   625.99   652.10   661.75   724.06
                              741.40   764.78   774.45   827.50   873.25
                              923.22   977.87   984.68  1113.37  1121.33
                             1147.30  1166.28  1272.07  1306.59  1324.60
                             1332.17  1389.56  1409.28  1465.18  1476.64
                             1508.13  1509.08  1586.76  1603.69  1613.97
                             1621.67  1718.71  1721.52  1727.06  1741.92
                             1751.05  1764.00  1782.70  1802.07  1814.20
                             1858.22  1889.70  2004.87  2025.69  2036.15
                             2101.57  2105.02  2111.01  2137.51  2155.60
                             2159.70  2167.05  2171.49  2181.48  2189.01
                             2193.61  2201.04  2205.52  2218.14  2229.29
                             2307.88  2345.50  2396.72  2420.50  2426.82
                             3027.75  4413.32  4417.76  4467.87  4472.38
                             4533.76  4533.82  4577.91  4580.80  4610.35
                             4613.23  4627.02  4627.87  4641.44  4642.53
                             4648.06  4650.88  4676.27  4680.71

 Zero-point correction=                           0.308677 (Hartree/Particle)
 Thermal correction to Energy=                    0.323779
 Thermal correction to Enthalpy=                  0.324723
 Thermal correction to Gibbs Free Energy=         0.267400
 Sum of electronic and zero-point Energies=           -653.258217
 Sum of electronic and thermal Energies=              -653.243116
 Sum of electronic and thermal Enthalpies=            -653.242171
 Sum of electronic and thermal Free Energies=         -653.299494

                     E (Thermal)             CV                S
                      KCal/Mol        Cal/Mol-Kelvin    Cal/Mol-Kelvin
 Total                  203.174             59.882            120.646
 Electronic               0.000              0.000              0.000
 Translational            0.889              2.981             42.002
 Rotational               0.889              2.981             32.136
 Vibrational            201.397             53.920             46.508
 Vibration     1          0.593              1.985              6.082
 Vibration     2          0.599              1.965              3.969
 Vibration     3          0.612              1.924              2.960
 Vibration     4          0.614              1.914              2.819
 Vibration     5          0.625              1.881              2.446
 Vibration     6          0.627              1.874              2.386
 Vibration     7          0.632              1.858              2.258
 Vibration     8          0.651              1.799              1.898
 Vibration     9          0.656              1.783              1.821
 Vibration    10          0.661              1.769              1.757
 Vibration    11          0.669              1.743              1.652
 Vibration    12          0.672              1.736              1.623
 Vibration    13          0.679              1.713              1.541
 Vibration    14          0.702              1.646              1.339
 Vibration    15          0.709              1.627              1.288
 Vibration    16          0.746              1.523              1.059
 Vibration    17          0.796              1.394              0.842
 Vibration    18          0.812              1.354              0.786
 Vibration    19          0.818              1.339              0.766
 Vibration    20          0.859              1.243              0.650
 Vibration    21          0.870              1.216              0.621
 Vibration    22          0.887              1.180              0.584
 Vibration    23          0.893              1.165              0.569
 Vibration    24          0.932              1.085              0.494
 Vibration    25          0.966              1.017              0.438

 Optimization completed.
    -- Stationary point found.
 Normal termination of Gaussian 09 at Thu Dec 19 08:11:50 2024.
