 Gaussian 09, Revision E.01,
 Gaussian 09:  ES64L-G09RevE.01 30-Nov-2015

 ----------------------------------------------------
 # opt freq b3lyp/6-31+g(d,p) EmpiricalDispersion=GD3
 ----------------------------------------------------

 ----------
 [No Title]
 ----------
 Symbolic Z-matrix:
 Charge =  1 Multiplicity = 1

 SCF Done:  E(RB3LYP) =  -654.295158902     A.U. after   15 cycles
 SCF Done:  E(RB3LYP) =  -654.295334967     A.U. after   12 cycles
 SCF Done:  E(RB3LYP) =  -654.295322619     A.U. after   11 cycles
 SCF Done:  E(RB3LYP) =  -654.295393828     A.U. after    7 cycles
 SCF Done:  E(RB3LYP) =  -654.295411583     A.U. after   11 cycles
 SCF Done:  E(RB3LYP) =  -654.295389665     A.U. after   11 cycles
 SCF Done:  E(RB3LYP) =  -654.295422366     A.U. after   11 cycles
 SCF Done:  E(RB3LYP) =  -654.295434072     A.U. after    9 cycles
 SCF Done:  E(RB3LYP) =  -654.295435337     A.U. after    9 cycles
 SCF Done:  E(RB3LYP) =  -654.295435739     A.U. after    9 cycles
 Optimization completed.
    -- Stationary point found.
 Normal termination of Gaussian 09 at Tue Dec 17 18:42:05 2024.

 ----------------------------------------------------------------------
 #N Geom=AllCheck Guess=TCheck SCRF=Check GenChk RB3LYP/6-31+G(d,p) Fre
 q
 ----------------------------------------------------------------------

 Structure from the checkpoint file:  "b3lypD3DMANyang.chk"
 ----------
 [No Title]
 ----------
 Charge =  1 Multiplicity = 1

                         Standard orientation:
 ---------------------------------------------------------------------
 Center     Atomic      Atomic             Coordinates (Angstroms)
 Number     Number       Type             X           Y           Z
 ---------------------------------------------------------------------
      1          6           0        0.734213   -2.445967    0.000147
      2          6           0        2.146543   -2.419576    0.000135
      3          6           0        2.805772   -1.211685    0.000047
      4          6           0        2.093578    0.018094   -0.000029
      5          6           0        0.653619    0.011304   -0.000015
      6          6           0        0.020177   -1.269932    0.000073
      7          6           0        2.788771    1.256943   -0.000117
      8          6           0        2.105226    2.450685   -0.000188
      9          6           0        0.692260    2.452758   -0.000169
     10          6           0       -0.023614    1.274042   -0.000083
     11          7           0       -1.460172   -1.313081    0.000078
     12          7           0       -1.487016    1.287665   -0.000052
     13          6           0       -2.030864   -1.921260   -1.242597
     14          6           0       -2.030871   -1.921140    1.242808
     15          6           0       -2.054332    1.897063    1.226830
     16          6           0       -2.054396    1.897032   -1.226919
     17          1           0        0.218804   -3.401375    0.000211
     18          1           0        2.699588   -3.352461    0.000194
     19          1           0        3.891151   -1.182162    0.000036
     20          1           0        3.874407    1.244769   -0.000126
     21          1           0        2.642274    3.393286   -0.000257
     22          1           0        0.163542    3.400799   -0.000221
     23          1           0       -1.707090   -0.224151    0.000024
     24          1           0       -3.114689   -1.789471   -1.231283
     25          1           0       -1.601129   -1.415746   -2.107823
     26          1           0       -1.789997   -2.984687   -1.284626
     27          1           0       -3.114694   -1.789338    1.231482
     28          1           0       -1.601129   -1.415554    2.107988
     29          1           0       -1.790022   -2.984567    1.284935
     30          1           0       -1.622313    1.413331    2.105684
     31          1           0       -1.848522    2.972811    1.283567
     32          1           0       -3.137642    1.748117    1.229720
     33          1           0       -1.622412    1.413287   -2.105784
     34          1           0       -3.137704    1.748073   -1.229754
     35          1           0       -1.848604    2.972782   -1.283688
 ---------------------------------------------------------------------

 SCF Done:  E(RB3LYP) =  -654.295435739     A.U. after    1 cycles

 The electronic state is 1-A.
 Alpha  occ. eigenvalues --  -14.57183 -14.50793 -10.38078 -10.37721 -10.37721
 Alpha  occ. eigenvalues --  -10.36683 -10.35218 -10.34890 -10.34889 -10.34067
 Alpha  occ. eigenvalues --  -10.33997 -10.32949 -10.32785 -10.32717 -10.32310
 Alpha  occ. eigenvalues --  -10.32245  -1.14175  -1.08410  -1.00878  -0.95790
 Alpha  occ. eigenvalues --   -0.91389  -0.88560  -0.88472  -0.86477  -0.85239
 Alpha  occ. eigenvalues --   -0.82620  -0.79344  -0.76712  -0.74844  -0.72028
 Alpha  occ. eigenvalues --   -0.68304  -0.66536  -0.65891  -0.63629  -0.63444
 Alpha  occ. eigenvalues --   -0.62348  -0.60004  -0.59802  -0.59333  -0.57390
 Alpha  occ. eigenvalues --   -0.56812  -0.56585  -0.55378  -0.54939  -0.54412
 Alpha  occ. eigenvalues --   -0.53813  -0.52911  -0.52352  -0.52341  -0.51289
 Alpha  occ. eigenvalues --   -0.50955  -0.48350  -0.47797  -0.46320  -0.42262
 Alpha  occ. eigenvalues --   -0.39241  -0.38452  -0.35480
 Alpha virt. eigenvalues --   -0.18556  -0.15436  -0.12556  -0.11951  -0.10058
 Alpha virt. eigenvalues --   -0.09456  -0.09362  -0.08804  -0.08312  -0.07284
 Alpha virt. eigenvalues --   -0.07072  -0.06773  -0.05784  -0.05557  -0.05303

 Mulliken charges:
               1
     1  C   -0.008916
     2  C   -0.221456
     3  C   -0.048732
     4  C   -0.400842
     5  C   -0.016430
     6  C   -0.177270
     7  C   -0.072784
     8  C   -0.212379
     9  C   -0.010090
    10  C   -0.192468
    11  N   -0.329658
    12  N   -0.390084
    13  C   -0.124776
    14  C   -0.124769
    15  C   -0.116816
    16  C   -0.116809
    17  H    0.143039
    18  H    0.162686
    19  H    0.157593
    20  H    0.155762
    21  H    0.161135
    22  H    0.144351
    23  H    0.482664
    24  H    0.186486
    25  H    0.192907
    26  H    0.191764
    27  H    0.186486
    28  H    0.192906
    29  H    0.191763
    30  H    0.167570
    31  H    0.172368
    32  H    0.167430
    33  H    0.167573
    34  H    0.167429
    35  H    0.172365
 Sum of Mulliken charges =   1.00000

 Dipole moment (field-independent basis, Debye):
    X=             -3.9632    Y=             -1.6186    Z=              0.0001  Tot=              4.2810
 Quadrupole moment (field-independent basis, Debye-Ang):
   XX=            -63.5737   YY=            -65.3298   ZZ=            -92.0341
   XY=              3.2038   XZ=             -0.0005   YZ=             -0.0016

  Exact polarizability: 196.487  -0.617 213.234  -0.001  -0.007 111.177
 Approx polarizability: 299.254  -0.435 360.925  -0.001  -0.013 166.608

                      1                      2                      3
                      A                      A                      A
 Frequencies --     29.7572                78.9767               129.6468
 Red. masses --      3.5097                 2.6657                 3.3235
 Frc consts  --      0.0018                 0.0098                 0.0329
 IR Inten    --      0.0810                 0.1270                 0.4721

                      4                      5                      6
                      A                      A                      A
 Frequencies --    142.4599               167.9775               180.0079
 Red. masses --      2.3715                 2.8526                 3.0955
 Frc consts  --      0.0284                 0.0474                 0.0591
 IR Inten    --      0.2238                18.1580                 3.6306

                      7                      8                      9
                      A                      A                      A
 Frequencies --    191.3106               230.1839               238.2261
 Red. masses --      3.5866                 1.1344                 1.4731
 Frc consts  --      0.0773                 0.0354                 0.0493
 IR Inten    --      0.2847                 0.0967                 1.1173

                     10                     11                     12
                      A                      A                      A
 Frequencies --    247.2978               261.4970               264.2505
 Red. masses --      1.1032                 2.3540                 1.1201
 Frc consts  --      0.0397                 0.0948                 0.0461
 IR Inten    --      0.0072                 2.9377                 0.7840

                     13                     14                     15
                      A                      A                      A
 Frequencies --    279.6098               325.2341               325.9653
 Red. masses --      2.1077                 3.3460                 2.7853
 Frc consts  --      0.0971                 0.2085                 0.1744
 IR Inten    --      0.0415                 0.1747                 2.1280

                     16                     17                     18
                      A                      A                      A
 Frequencies --    385.0550               437.5021               455.9778
 Red. masses --      3.7184                 3.2212                 2.9716
 Frc consts  --      0.3248                 0.3633                 0.3640
 IR Inten    --     12.7745                25.5573                 0.3471

                     19                     20                     21
                      A                      A                      A
 Frequencies --    479.4529               502.1933               532.7425
 Red. masses --      3.3575                 5.5341                 4.0762
 Frc consts  --      0.4547                 0.8223                 0.6816
 IR Inten    --      0.4761                18.0968                17.9093

                     22                     23                     24
                      A                      A                      A
 Frequencies --    539.4401               539.9254               574.7532
 Red. masses --      3.5880                 5.1338                 3.8083
 Frc consts  --      0.6152                 0.8818                 0.7412
 IR Inten    --      0.0206                 2.2398                 4.0372

                     25                     26                     27
                      A                      A                      A
 Frequencies --    645.4997               668.9987               676.2105
 Red. masses --      4.1147                 3.1893                 3.6542
 Frc consts  --      1.0101                 0.8410                 0.9845
 IR Inten    --      0.2336                 0.1124                67.7584

                     28                     29                     30
                      A                      A                      A
 Frequencies --    770.8054               781.7749               788.9078
 Red. masses --      4.8719                 2.1868                 1.2856
 Frc consts  --      1.7055                 0.7875                 0.4714
 IR Inten    --      1.6256                61.4611                 0.2185

                     31                     32                     33
                      A                      A                      A
 Frequencies --    795.4860               846.0813               876.8317
 Red. masses --      5.3535                 2.2076                 4.1091
 Frc consts  --      1.9960                 0.9311                 1.8613
 IR Inten    --      0.4563                30.0263                43.0960

                     34                     35                     36
                      A                      A                      A
 Frequencies --    912.7710               930.6037               949.0460
 Red. masses --      3.7938                 1.3758                 1.4421
 Frc consts  --      1.8623                 0.7020                 0.7653
 IR Inten    --     33.2361                 0.2724                 2.2014

                     37                     38                     39
                      A                      A                      A
 Frequencies --    999.3370              1009.1085              1010.4816
 Red. masses --      1.3434                 3.5436                 1.3885
 Frc consts  --      0.7905                 2.1260                 0.8353
 IR Inten    --      0.0191                36.6333                 0.1051

                     40                     41                     42
                      A                      A                      A
 Frequencies --   1014.2894              1038.2293              1043.3307
 Red. masses --      2.1320                 1.9065                 4.1032
 Frc consts  --      1.2923                 1.2108                 2.6316
 IR Inten    --     14.6557                16.9511                10.9402

                     43                     44                     45
                      A                      A                      A
 Frequencies --   1094.8401              1106.8859              1116.3908
 Red. masses --      1.2012                 2.2046                 1.2404
 Frc consts  --      0.8484                 1.5914                 0.9108
 IR Inten    --      0.3189                11.0383                 1.2874

                     46                     47                     48
                      A                      A                      A
 Frequencies --   1117.8784              1181.3576              1189.2571
 Red. masses --      1.8887                 1.9701                 1.3171
 Frc consts  --      1.3906                 1.6199                 1.0975
 IR Inten    --      2.1676                 3.6771                 5.2006

                     49                     50                     51
                      A                      A                      A
 Frequencies --   1193.8493              1197.6600              1204.8104
 Red. masses --      1.4607                 2.5433                 1.5628
 Frc consts  --      1.2266                 2.1493                 1.3366
 IR Inten    --      3.8293                 8.9016                 8.8853

                     52                     53                     54
                      A                      A                      A
 Frequencies --   1216.7568              1232.6779              1244.6624
 Red. masses --      1.3653                 1.4991                 1.5969
 Frc consts  --      1.1910                 1.3421                 1.4576
 IR Inten    --     33.6980                24.6567                30.2352

                     55                     56                     57
                      A                      A                      A
 Frequencies --   1249.3044              1277.7303              1300.3278
 Red. masses --      2.0011                 2.1558                 2.4254
 Frc consts  --      1.8401                 2.0737                 2.4162
 IR Inten    --     13.6929                 1.4202                18.6806

                     58                     59                     60
                      A                      A                      A
 Frequencies --   1381.6859              1388.2521              1399.7647
 Red. masses --      2.6823                 3.4162                 4.1949
 Frc consts  --      3.0170                 3.8791                 4.8427
 IR Inten    --     76.7822                27.5510                20.3067

                     61                     62                     63
                      A                      A                      A
 Frequencies --   1445.4837              1449.4266              1453.5920
 Red. masses --      1.3752                 1.1397                 1.1386
 Frc consts  --      1.6929                 1.4107                 1.4174
 IR Inten    --    103.3361                 0.3643                 6.8655

                     64                     65                     66
                      A                      A                      A
 Frequencies --   1475.6947              1484.1067              1484.9006
 Red. masses --      1.6238                 1.0421                 1.1973
 Frc consts  --      2.0834                 1.3523                 1.5554
 IR Inten    --      0.1917                 0.0762                 0.8884

                     67                     68                     69
                      A                      A                      A
 Frequencies --   1492.3256              1495.7738              1497.7484
 Red. masses --      1.0482                 1.6147                 1.0437
 Frc consts  --      1.3754                 2.1286                 1.3794
 IR Inten    --      1.3087                 0.9811                 4.2278

                     70                     71                     72
                      A                      A                      A
 Frequencies --   1505.7684              1507.5876              1513.1274
 Red. masses --      1.0453                 1.3596                 1.0504
 Frc consts  --      1.3964                 1.8207                 1.4169
 IR Inten    --     13.5080                 8.7479                 2.3680

                     73                     74                     75
                      A                      A                      A
 Frequencies --   1515.9127              1523.5777              1538.4256
 Red. masses --      1.0858                 1.0574                 2.5876
 Frc consts  --      1.4701                 1.4462                 3.6083
 IR Inten    --      5.9638                24.7177               141.6490

                     76                     77                     78
                      A                      A                      A
 Frequencies --   1591.7894              1622.6365              1660.1647
 Red. masses --      1.7006                 5.7628                 4.0863
 Frc consts  --      2.5388                 8.9397                 6.6356
 IR Inten    --    290.9018                15.0475                50.4144

                     79                     80                     81
                      A                      A                      A
 Frequencies --   1676.1837              1676.3815              2051.8512
 Red. masses --      1.0809                 5.2503                 1.1178
 Frc consts  --      1.7893                 8.6932                 2.7728
 IR Inten    --      3.2862                80.0349              1067.8061

                     82                     83                     84
                      A                      A                      A
 Frequencies --   3034.0767              3038.2456              3073.0213
 Red. masses --      1.0358                 1.0370                 1.0310
 Frc consts  --      5.6180                 5.6399                 5.7365
 IR Inten    --     20.7312                22.8179                 5.6036

                     85                     86                     87
                      A                      A                      A
 Frequencies --   3076.8605              3111.6788              3112.2648
 Red. masses --      1.0318                 1.1012                 1.0997
 Frc consts  --      5.7551                 6.2820                 6.2757
 IR Inten    --      6.4036                 1.4032                23.2317

                     88                     89                     90
                      A                      A                      A
 Frequencies --   3142.9867              3145.0958              3164.4187
 Red. masses --      1.1053                 1.1059                 1.1078
 Frc consts  --      6.4331                 6.4451                 6.5361
 IR Inten    --      4.8871                19.6120                 0.0406

                     91                     92                     93
                      A                      A                      A
 Frequencies --   3166.8863              3176.9644              3177.9755
 Red. masses --      1.1071                 1.1072                 1.1079
 Frc consts  --      6.5421                 6.5840                 6.5925
 IR Inten    --      7.1273                 0.8970                 3.7910

                     94                     95                     96
                      A                      A                      A
 Frequencies --   3196.7079              3197.7705              3201.8280
 Red. masses --      1.0883                 1.0887                 1.0916
 Frc consts  --      6.5525                 6.5590                 6.5936
 IR Inten    --      0.3821                 2.9171                 0.4881

                     97                     98                     99
                      A                      A                      A
 Frequencies --   3203.8202              3219.9000              3222.8513
 Red. masses --      1.0913                 1.0973                 1.0970
 Frc consts  --      6.6001                 6.7027                 6.7131
 IR Inten    --      5.9404                 2.1348                 1.1177

 - Thermochemistry -
 -------------------
 Temperature   298.150 Kelvin.  Pressure   1.00000 Atm.
 Atom     1 has atomic number  6 and mass  12.00000

 Molecular mass:   215.15482 amu.
 Principal axes and moments of inertia in atomic units:
                           1         2         3
     Eigenvalues --  2833.956933003.986615096.33870
           X            0.99999   0.00348   0.00001
           Y           -0.00348   0.99999   0.00006
           Z           -0.00001  -0.00006   1.00000
 This molecule is an asymmetric top.
 Rotational symmetry number  1.
 Warning -- assumption of classical behavior for rotation
           may cause significant error
 Rotational temperatures (Kelvin)      0.03056     0.02883     0.01700
 Rotational constants (GHZ):           0.63683     0.60078     0.35413
 Zero-point vibrational energy     805787.4 (Joules/Mol)
                                  192.58782 (Kcal/Mol)
 Warning -- explicit consideration of  24 degrees of freedom as
           vibrations may cause significant error
 Vibrational temperatures:     42.81   113.63   186.53   204.97   241.68
          (Kelvin)            258.99   275.25   331.18   342.75   355.81
                              376.24   380.20   402.30   467.94   468.99
                              554.01   629.47   656.05   689.82   722.54
                              766.50   776.13   776.83   826.94   928.73
                              962.54   972.91  1109.02  1124.80  1135.06
                             1144.53  1217.32  1261.56  1313.27  1338.93
                             1365.46  1437.82  1451.88  1453.86  1459.33
                             1493.78  1501.12  1575.23  1592.56  1606.24
                             1608.38  1699.71  1711.07  1717.68  1723.16
                             1733.45  1750.64  1773.55  1790.79  1797.47
                             1838.37  1870.88  1987.94  1997.38  2013.95
                             2079.73  2085.40  2091.39  2123.19  2135.30
                             2136.44  2147.12  2152.08  2154.92  2166.46
                             2169.08  2177.05  2181.06  2192.09  2213.45
                             2290.23  2334.61  2388.60  2411.65  2411.94
                             2952.15  4365.35  4371.35  4421.39  4426.91
                             4477.01  4477.85  4522.05  4525.09  4552.89
                             4556.44  4570.94  4572.39  4599.34  4600.87
                             4606.71  4609.58  4632.71  4636.96

 Zero-point correction=                           0.306908 (Hartree/Particle)
 Thermal correction to Energy=                    0.321839
 Thermal correction to Enthalpy=                  0.322783
 Thermal correction to Gibbs Free Energy=         0.265889
 Sum of electronic and zero-point Energies=           -653.988528
 Sum of electronic and thermal Energies=              -653.973597
 Sum of electronic and thermal Enthalpies=            -653.972653
 Sum of electronic and thermal Free Energies=         -654.029547

                     E (Thermal)             CV                S
                      KCal/Mol        Cal/Mol-Kelvin    Cal/Mol-Kelvin
 Total                  201.957             59.438            119.744
 Electronic               0.000              0.000              0.000
 Translational            0.889              2.981             42.002
 Rotational               0.889              2.981             32.140
 Vibrational            200.179             53.476             45.602
 Vibration     1          0.594              1.984              5.846
 Vibration     2          0.600              1.963              3.916
 Vibration     3          0.612              1.924              2.951
 Vibration     4          0.616              1.911              2.771
 Vibration     5          0.625              1.882              2.458
 Vibration     6          0.629              1.867              2.328
 Vibration     7          0.634              1.852              2.215
 Vibration     8          0.652              1.795              1.878
 Vibration     9          0.656              1.782              1.816
 Vibration    10          0.661              1.767              1.750
 Vibration    11          0.669              1.743              1.652
 Vibration    12          0.671              1.738              1.634
 Vibration    13          0.680              1.711              1.536
 Vibration    14          0.709              1.625              1.284
 Vibration    15          0.710              1.624              1.280
 Vibration    16          0.754              1.502              1.019
 Vibration    17          0.798              1.388              0.834
 Vibration    18          0.814              1.348              0.778
 Vibration    19          0.836              1.296              0.712
 Vibration    20          0.858              1.245              0.653
 Vibration    21          0.888              1.178              0.581
 Vibration    22          0.894              1.163              0.566
 Vibration    23          0.895              1.162              0.565
 Vibration    24          0.931              1.086              0.495

 Optimization completed.
    -- Stationary point found.
 Normal termination of Gaussian 09 at Tue Dec 17 18:48:02 2024.
