 Gaussian 09, Revision E.01,
 Gaussian 09:  ES64L-G09RevE.01 30-Nov-2015

 ----------------------------------------------------
 # opt freq b3lyp/6-31+g(d,p) EmpiricalDispersion=GD3
 ----------------------------------------------------

 ----------
 [No Title]
 ----------
 Symbolic Z-matrix:
 Charge =  0 Multiplicity = 1

 SCF Done:  E(RB3LYP) =  -653.887457543     A.U. after   14 cycles
 SCF Done:  E(RB3LYP) =  -653.887693800     A.U. after   12 cycles
 SCF Done:  E(RB3LYP) =  -653.887586545     A.U. after   11 cycles
 SCF Done:  E(RB3LYP) =  -653.887827688     A.U. after   13 cycles
 SCF Done:  E(RB3LYP) =  -653.887813786     A.U. after   11 cycles
 SCF Done:  E(RB3LYP) =  -653.887815024     A.U. after   10 cycles
 SCF Done:  E(RB3LYP) =  -653.887815222     A.U. after   10 cycles
 SCF Done:  E(RB3LYP) =  -653.887815255     A.U. after    9 cycles
 Optimization completed.
    -- Stationary point found.
 Normal termination of Gaussian 09 at Tue Dec 17 17:27:42 2024.

 ----------------------------------------------------------------------
 #N Geom=AllCheck Guess=TCheck SCRF=Check GenChk RB3LYP/6-31+G(d,p) Fre
 q
 ----------------------------------------------------------------------

 Structure from the checkpoint file:  "b3lypD3DMAN.chk"
 ----------
 [No Title]
 ----------
 Charge =  0 Multiplicity = 1

                         Standard orientation:
 ---------------------------------------------------------------------
 Center     Atomic      Atomic             Coordinates (Angstroms)
 Number     Number       Type             X           Y           Z
 ---------------------------------------------------------------------
      1          6           0        0.686368   -2.443618   -0.197643
      2          6           0        2.090030   -2.407239   -0.331599
      3          6           0        2.761954   -1.218256   -0.187257
      4          6           0        2.045125   -0.004331    0.000081
      5          6           0        0.604136   -0.001228    0.000170
      6          6           0       -0.063310   -1.290497    0.014896
      7          6           0        2.767196    1.206509    0.187251
      8          6           0        2.100420    2.398406    0.331437
      9          6           0        0.696924    2.440822    0.197502
     10          6           0       -0.057730    1.290901   -0.014726
     11          7           0       -1.452918   -1.380100    0.255789
     12          7           0       -1.446941    1.386408   -0.255639
     13          6           0       -1.914596   -0.904865    1.559541
     14          6           0       -2.143675   -2.588485   -0.157495
     15          6           0       -2.132449    2.598044    0.156877
     16          6           0       -1.910731    0.912161   -1.558997
     17          1           0        0.195093   -3.409119   -0.201339
     18          1           0        2.634150   -3.333988   -0.490930
     19          1           0        3.847313   -1.183462   -0.217868
     20          1           0        3.852398    1.167041    0.217755
     21          1           0        2.648544    3.322827    0.490575
     22          1           0        0.209800    3.408424    0.201023
     23          1           0       -1.337185   -0.040215    1.879935
     24          1           0       -2.966428   -0.605925    1.494258
     25          1           0       -1.817959   -1.694052    2.326613
     26          1           0       -1.875348   -2.845530   -1.185950
     27          1           0       -1.937889   -3.462044    0.488908
     28          1           0       -3.222192   -2.400877   -0.121992
     29          1           0       -1.862921    2.854634    1.185132
     30          1           0       -1.922958    3.470271   -0.490137
     31          1           0       -3.211766    2.415056    0.121594
     32          1           0       -1.337122    0.044701   -1.878656
     33          1           0       -2.963862    0.617892   -1.493454
     34          1           0       -1.810634    1.700271   -2.326732
 ---------------------------------------------------------------------

 SCF Done:  E(RB3LYP) =  -653.887815255     A.U. after    1 cycles

 The electronic state is 1-A.
 Alpha  occ. eigenvalues --  -14.34286 -14.34285 -10.22872 -10.22872 -10.21264
 Alpha  occ. eigenvalues --  -10.21264 -10.20652 -10.20651 -10.20107 -10.19901
 Alpha  occ. eigenvalues --  -10.18989 -10.18988 -10.18432 -10.18431 -10.18381
 Alpha  occ. eigenvalues --  -10.18379  -0.94735  -0.93165  -0.85934  -0.81298
 Alpha  occ. eigenvalues --   -0.76450  -0.74232  -0.72340  -0.71213  -0.70950
 Alpha  occ. eigenvalues --   -0.65367  -0.65353  -0.61114  -0.59861  -0.55880
 Alpha  occ. eigenvalues --   -0.51855  -0.51200  -0.50127  -0.47999  -0.47117
 Alpha  occ. eigenvalues --   -0.46430  -0.45864  -0.45333  -0.44212  -0.42258
 Alpha  occ. eigenvalues --   -0.41093  -0.40693  -0.39728  -0.39555  -0.39137
 Alpha  occ. eigenvalues --   -0.38232  -0.37996  -0.37371  -0.37227  -0.36976
 Alpha  occ. eigenvalues --   -0.34298  -0.33706  -0.32628  -0.28867  -0.25844
 Alpha  occ. eigenvalues --   -0.24283  -0.20161  -0.18894
 Alpha virt. eigenvalues --   -0.03723  -0.01647  -0.00164   0.00897   0.01454
 Alpha virt. eigenvalues --    0.01809   0.02749   0.02881   0.03205   0.03587
 Alpha virt. eigenvalues --    0.04766   0.04974   0.05013   0.05401   0.05833

 Mulliken charges:
               1
     1  C   -0.390530
     2  C   -0.336642
     3  C   -0.266618
     4  C    0.048502
     5  C    0.166133
     6  C    0.098808
     7  C   -0.266366
     8  C   -0.337094
     9  C   -0.391108
    10  C    0.098812
    11  N   -0.009542
    12  N   -0.009414
    13  C   -0.176084
    14  C   -0.228944
    15  C   -0.228964
    16  C   -0.176149
    17  H    0.114885
    18  H    0.121304
    19  H    0.118863
    20  H    0.118859
    21  H    0.121304
    22  H    0.114885
    23  H    0.160517
    24  H    0.133467
    25  H    0.126876
    26  H    0.151086
    27  H    0.135435
    28  H    0.140192
    29  H    0.151074
    30  H    0.135448
    31  H    0.140183
    32  H    0.160509
    33  H    0.133445
    34  H    0.126868
 Sum of Mulliken charges =  -0.00000

 Dipole moment (field-independent basis, Debye):
    X=             -1.7051    Y=              0.0032    Z=             -0.0001  Tot=              1.7051
 Quadrupole moment (field-independent basis, Debye-Ang):
   XX=            -91.1928   YY=            -90.9567   ZZ=           -101.7672
   XY=              0.0006   XZ=              0.0031   YZ=              1.7485

  Exact polarizability: 223.509   0.012 227.734   0.014   5.753 124.070
 Approx polarizability: 350.805   0.038 367.053   0.041  19.245 187.068

                      1                      2                      3
                      A                      A                      A
 Frequencies --     51.5760                97.3694               117.5488
 Red. masses --      3.7929                 2.3480                 1.8424
 Frc consts  --      0.0059                 0.0131                 0.0150
 IR Inten    --      0.7656                 0.2517                 3.1340

                      4                      5                      6
                      A                      A                      A
 Frequencies --    125.3814               125.7863               149.6577
 Red. masses --      2.9127                 2.9777                 2.4865
 Frc consts  --      0.0270                 0.0278                 0.0328
 IR Inten    --      1.2830                 0.9989                 0.4425

                      7                      8                      9
                      A                      A                      A
 Frequencies --    175.4286               212.0389               248.8390
 Red. masses --      1.9719                 2.3075                 1.5530
 Frc consts  --      0.0358                 0.0611                 0.0567
 IR Inten    --      1.0908                 0.0044                 1.0834

                     10                     11                     12
                      A                      A                      A
 Frequencies --    273.1565               308.8282               317.1143
 Red. masses --      1.7761                 1.5996                 1.9608
 Frc consts  --      0.0781                 0.0899                 0.1162
 IR Inten    --      4.1863                 2.6993                 1.0043

                     13                     14                     15
                      A                      A                      A
 Frequencies --    321.9240               337.5135               363.1074
 Red. masses --      2.2219                 1.5834                 2.4560
 Frc consts  --      0.1357                 0.1063                 0.1908
 IR Inten    --      2.9029                 0.3274                 1.2209

                     16                     17                     18
                      A                      A                      A
 Frequencies --    372.8335               393.8208               454.2804
 Red. masses --      3.5160                 2.8875                 3.0374
 Frc consts  --      0.2880                 0.2639                 0.3693
 IR Inten    --      4.0805                 3.0192                 1.5296

                     19                     20                     21
                      A                      A                      A
 Frequencies --    482.1333               485.5402               536.4535
 Red. masses --      4.5961                 3.4857                 3.7619
 Frc consts  --      0.6295                 0.4842                 0.6379
 IR Inten    --      5.1534                 2.3463                 1.7845

                     22                     23                     24
                      A                      A                      A
 Frequencies --    538.3629               544.5376               551.4176
 Red. masses --      4.1329                 4.0213                 5.4684
 Frc consts  --      0.7058                 0.7025                 0.9797
 IR Inten    --      5.7287                 0.0252                 2.2588

                     25                     26                     27
                      A                      A                      A
 Frequencies --    635.4528               654.9867               675.4893
 Red. masses --      4.2196                 3.9197                 3.0245
 Frc consts  --      1.0039                 0.9908                 0.8131
 IR Inten    --      2.0981                 8.4026                 7.1017

                     28                     29                     30
                      A                      A                      A
 Frequencies --    767.7385               772.6691               773.1886
 Red. masses --      1.3321                 3.7859                 2.0299
 Frc consts  --      0.4626                 1.3317                 0.7150
 IR Inten    --      0.0429                19.4870                47.9750

                     31                     32                     33
                      A                      A                      A
 Frequencies --    792.7575               829.4890               876.8921
 Red. masses --      5.3156                 3.0204                 1.4530
 Frc consts  --      1.9683                 1.2244                 0.6583
 IR Inten    --      3.2334                44.4195                 0.0946

                     34                     35                     36
                      A                      A                      A
 Frequencies --    894.5244               904.1909               954.1921
 Red. masses --      1.5042                 4.3149                 3.6801
 Frc consts  --      0.7091                 2.0785                 1.9741
 IR Inten    --      1.6781                 2.9199                36.2191

                     37                     38                     39
                      A                      A                      A
 Frequencies --    969.9339               979.4521              1049.3409
 Red. masses --      1.2947                 1.3095                 2.6827
 Frc consts  --      0.7176                 0.7401                 1.7404
 IR Inten    --      0.5288                 0.5397                93.4247

                     40                     41                     42
                      A                      A                      A
 Frequencies --   1057.0617              1084.2224              1084.6708
 Red. masses --      4.3980                 1.4950                 1.4729
 Frc consts  --      2.8954                 1.0354                 1.0210
 IR Inten    --     27.1651                24.6166                10.9333

                     43                     44                     45
                      A                      A                      A
 Frequencies --   1115.4513              1118.5397              1132.1553
 Red. masses --      1.2938                 1.3267                 1.8615
 Frc consts  --      0.9485                 0.9780                 1.4058
 IR Inten    --      9.9707                 5.5781                 0.0360

                     46                     47                     48
                      A                      A                      A
 Frequencies --   1137.9092              1165.2056              1168.6766
 Red. masses --      1.7501                 1.4520                 1.4440
 Frc consts  --      1.3351                 1.1615                 1.1620
 IR Inten    --      4.2488                 1.7594                44.7536

                     49                     50                     51
                      A                      A                      A
 Frequencies --   1187.5642              1199.2082              1214.9409
 Red. masses --      1.3646                 1.3215                 3.3600
 Frc consts  --      1.1339                 1.1197                 2.9221
 IR Inten    --      1.7553                 3.7565                27.2530

                     52                     53                     54
                      A                      A                      A
 Frequencies --   1231.4684              1236.4611              1251.8054
 Red. masses --      1.4380                 2.1094                 2.5067
 Frc consts  --      1.2849                 1.9001                 2.3143
 IR Inten    --      7.1693                 4.4212                20.8468

                     55                     56                     57
                      A                      A                      A
 Frequencies --   1253.6318              1345.5767              1357.4858
 Red. masses --      2.5188                 3.1591                 2.0511
 Frc consts  --      2.3323                 3.3700                 2.2269
 IR Inten    --     18.9286                15.3130                42.8456

                     58                     59                     60
                      A                      A                      A
 Frequencies --   1374.9378              1381.3360              1416.4330
 Red. masses --      6.6027                 3.4920                 3.2795
 Frc consts  --      7.3542                 3.9257                 3.8766
 IR Inten    --     20.6275                19.4246                83.2541

                     61                     62                     63
                      A                      A                      A
 Frequencies --   1452.4098              1453.4277              1465.7159
 Red. masses --      1.1609                 1.1585                 1.7238
 Frc consts  --      1.4429                 1.4419                 2.1819
 IR Inten    --      0.0049                 1.9363                22.8102

                     64                     65                     66
                      A                      A                      A
 Frequencies --   1472.7226              1479.8401              1485.7575
 Red. masses --      1.4682                 1.0900                 1.0491
 Frc consts  --      1.8762                 1.4064                 1.3645
 IR Inten    --      5.0450                 1.0090                 8.8511

                     67                     68                     69
                      A                      A                      A
 Frequencies --   1485.9459              1494.1550              1500.4146
 Red. masses --      1.2126                 1.2128                 1.0529
 Frc consts  --      1.5775                 1.5953                 1.3966
 IR Inten    --      0.7022                 3.8027                23.4980

                     70                     71                     72
                      A                      A                      A
 Frequencies --   1500.7174              1506.2780              1507.2167
 Red. masses --      1.1156                 1.0500                 1.3151
 Frc consts  --      1.4803                 1.4037                 1.7602
 IR Inten    --     19.7839                 5.4915                19.2575

                     73                     74                     75
                      A                      A                      A
 Frequencies --   1525.8339              1530.1640              1551.7914
 Red. masses --      1.0883                 1.0992                 3.6516
 Frc consts  --      1.4928                 1.5164                 5.1808
 IR Inten    --      9.7380                25.8188                24.2497

                     76                     77                     78
                      A                      A                      A
 Frequencies --   1619.5851              1640.7050              1651.1082
 Red. masses --      5.5546                 5.1370                 5.6645
 Frc consts  --      8.5844                 8.1475                 9.0983
 IR Inten    --    200.5018                 0.6635                11.3164

                     79                     80                     81
                      A                      A                      A
 Frequencies --   2935.5820              2935.9633              2950.5259
 Red. masses --      1.0599                 1.0598                 1.0605
 Frc consts  --      5.3817                 5.3824                 5.4395
 IR Inten    --    174.1904                16.5050               280.8854

                     82                     83                     84
                      A                      A                      A
 Frequencies --   2952.4968              3062.1915              3062.2774
 Red. masses --      1.0604                 1.0731                 1.0736
 Frc consts  --      5.4460                 5.9285                 5.9318
 IR Inten    --     51.3620                20.4732                43.3040

                     85                     86                     87
                      A                      A                      A
 Frequencies --   3070.3813              3070.4811              3116.9483
 Red. masses --      1.0811                 1.0815                 1.1024
 Frc consts  --      6.0046                 6.0072                 6.3102
 IR Inten    --     80.0609                20.5765                16.5676

                     88                     89                     90
                      A                      A                      A
 Frequencies --   3116.9717              3174.3068              3174.5740
 Red. masses --      1.1023                 1.0948                 1.0927
 Frc consts  --      6.3096                 6.4997                 6.4882
 IR Inten    --     24.9367                 6.2418                17.3069

                     91                     92                     93
                      A                      A                      A
 Frequencies --   3174.6878              3176.7462              3192.9204
 Red. masses --      1.0880                 1.0862                 1.0953
 Frc consts  --      6.4608                 6.4583                 6.5787
 IR Inten    --      0.2796                 0.5152                11.6407

                     94                     95                     96
                      A                      A                      A
 Frequencies --   3195.6441              3220.1329              3220.2107
 Red. masses --      1.0946                 1.0915                 1.0913
 Frc consts  --      6.5858                 6.6683                 6.6675
 IR Inten    --     48.7433                21.1474                 2.8635

 - Thermochemistry -
 -------------------
 Temperature   298.150 Kelvin.  Pressure   1.00000 Atm.
 Atom     1 has atomic number  6 and mass  12.00000

 Molecular mass:   214.14700 amu.
 Principal axes and moments of inertia in atomic units:
                           1         2         3
     Eigenvalues --  2824.288242891.433355060.55001
           X            1.00000   0.00025  -0.00000
           Y           -0.00025   1.00000  -0.00128
           Z            0.00000   0.00128   1.00000
 This molecule is an asymmetric top.
 Rotational symmetry number  1.
 Warning -- assumption of classical behavior for rotation
           may cause significant error
 Rotational temperatures (Kelvin)      0.03067     0.02996     0.01712
 Rotational constants (GHZ):           0.63901     0.62417     0.35663
 Zero-point vibrational energy     770135.0 (Joules/Mol)
                                  184.06669 (Kcal/Mol)
 Warning -- explicit consideration of  24 degrees of freedom as
           vibrations may cause significant error
 Vibrational temperatures:     74.21   140.09   169.13   180.40   180.98
          (Kelvin)            215.32   252.40   305.08   358.02   393.01
                              444.33   456.26   463.18   485.61   522.43
                              536.42   566.62   653.61   693.68   698.58
                              771.84   774.58   783.47   793.37   914.27
                              942.38   971.88  1104.60  1111.70  1112.44
                             1140.60  1193.45  1261.65  1287.02  1300.93
                             1372.87  1395.52  1409.21  1509.77  1520.87
                             1559.95  1560.60  1604.88  1609.33  1628.92
                             1637.20  1676.47  1681.46  1708.64  1725.39
                             1748.03  1771.81  1778.99  1801.07  1803.69
                             1935.98  1953.12  1978.23  1987.43  2037.93
                             2089.69  2091.16  2108.84  2118.92  2129.16
                             2137.67  2137.94  2149.75  2158.76  2159.19
                             2167.20  2168.55  2195.33  2201.56  2232.68
                             2330.22  2360.61  2375.57  4223.64  4224.19
                             4245.14  4247.98  4405.81  4405.93  4417.59
                             4417.73  4484.59  4484.62  4567.11  4567.50
                             4567.66  4570.62  4593.89  4597.81  4633.05
                             4633.16

 Zero-point correction=                           0.293329 (Hartree/Particle)
 Thermal correction to Energy=                    0.308199
 Thermal correction to Enthalpy=                  0.309143
 Thermal correction to Gibbs Free Energy=         0.252692
 Sum of electronic and zero-point Energies=           -653.594486
 Sum of electronic and thermal Energies=              -653.579617
 Sum of electronic and thermal Enthalpies=            -653.578672
 Sum of electronic and thermal Free Energies=         -653.635123

                     E (Thermal)             CV                S
                      KCal/Mol        Cal/Mol-Kelvin    Cal/Mol-Kelvin
 Total                  193.398             59.211            118.810
 Electronic               0.000              0.000              0.000
 Translational            0.889              2.981             41.988
 Rotational               0.889              2.981             32.091
 Vibrational            191.620             53.250             44.731
 Vibration     1          0.596              1.977              4.756
 Vibration     2          0.603              1.951              3.506
 Vibration     3          0.608              1.935              3.140
 Vibration     4          0.610              1.928              3.016
 Vibration     5          0.611              1.927              3.009
 Vibration     6          0.618              1.903              2.677
 Vibration     7          0.627              1.873              2.377
 Vibration     8          0.643              1.823              2.026
 Vibration     9          0.662              1.765              1.739
 Vibration    10          0.676              1.723              1.576
 Vibration    11          0.698              1.657              1.369
 Vibration    12          0.704              1.641              1.325
 Vibration    13          0.707              1.632              1.300
 Vibration    14          0.718              1.601              1.224
 Vibration    15          0.737              1.548              1.109
 Vibration    16          0.744              1.528              1.068
 Vibration    17          0.761              1.483              0.986
 Vibration    18          0.813              1.351              0.783
 Vibration    19          0.838              1.290              0.704
 Vibration    20          0.842              1.282              0.695
 Vibration    21          0.891              1.169              0.573
 Vibration    22          0.893              1.165              0.569
 Vibration    23          0.900              1.152              0.556
 Vibration    24          0.907              1.137              0.541

 Normal termination of Gaussian 09 at Tue Dec 17 17:33:39 2024.
