 Gaussian 09, Revision E.01,
 Gaussian 09:  ES64L-G09RevE.01 30-Nov-2015

 -----------------------------------------------------
 # opt freq b3pw91/6-31+g(d,p) EmpiricalDispersion=GD3
 -----------------------------------------------------

 ----------
 [No Title]
 ----------
 Symbolic Z-matrix:
 Charge =  0 Multiplicity = 1

 SCF Done:  E(RB3PW91) =  -653.642099770     A.U. after   14 cycles
 SCF Done:  E(RB3PW91) =  -653.640636963     A.U. after   13 cycles
 SCF Done:  E(RB3PW91) =  -653.642202048     A.U. after   10 cycles
 SCF Done:  E(RB3PW91) =  -653.642214717     A.U. after   12 cycles
 SCF Done:  E(RB3PW91) =  -653.642317574     A.U. after   12 cycles
 SCF Done:  E(RB3PW91) =  -653.642337651     A.U. after   11 cycles
 SCF Done:  E(RB3PW91) =  -653.642355225     A.U. after   10 cycles
 SCF Done:  E(RB3PW91) =  -653.642368070     A.U. after   11 cycles
 SCF Done:  E(RB3PW91) =  -653.642377805     A.U. after   12 cycles
 SCF Done:  E(RB3PW91) =  -653.642384213     A.U. after   11 cycles
 SCF Done:  E(RB3PW91) =  -653.642386901     A.U. after   11 cycles
 SCF Done:  E(RB3PW91) =  -653.642389004     A.U. after   10 cycles
 SCF Done:  E(RB3PW91) =  -653.642388991     A.U. after   10 cycles
 SCF Done:  E(RB3PW91) =  -653.642389088     A.U. after    8 cycles
 Optimization completed.
    -- Stationary point found.
 Normal termination of Gaussian 09 at Thu Dec 19 10:20:39 2024.

 ----------------------------------------------------------------------
 #N Geom=AllCheck Guess=TCheck SCRF=Check GenChk RB3PW91/6-31+G(d,p) Fr
 eq
 ----------------------------------------------------------------------

 Structure from the checkpoint file:  "B3PW91D3DMAN.chk"
 ----------
 [No Title]
 ----------
 Charge =  0 Multiplicity = 1

                         Standard orientation:
 ---------------------------------------------------------------------
 Center     Atomic      Atomic             Coordinates (Angstroms)
 Number     Number       Type             X           Y           Z
 ---------------------------------------------------------------------
      1          6           0        0.687854   -2.436781   -0.197952
      2          6           0        2.087386   -2.396994   -0.343462
      3          6           0        2.760370   -1.210468   -0.194744
      4          6           0        2.045175   -0.000021   -0.000000
      5          6           0        0.608543   -0.000006    0.000002
      6          6           0       -0.057579   -1.285072    0.026891
      7          6           0        2.760396    1.210410    0.194740
      8          6           0        2.087437    2.396950    0.343462
      9          6           0        0.687906    2.436767    0.197956
     10          6           0       -0.057552    1.285073   -0.026885
     11          7           0       -1.434511   -1.369943    0.283942
     12          7           0       -1.434482    1.369973   -0.283939
     13          6           0       -1.913211   -0.826020    1.545198
     14          6           0       -2.137595   -2.570121   -0.104283
     15          6           0       -2.137538    2.570173    0.104272
     16          6           0       -1.913190    0.826052   -1.545193
     17          1           0        0.195918   -3.402968   -0.195036
     18          1           0        2.631508   -3.322708   -0.510901
     19          1           0        3.845980   -1.176511   -0.228382
     20          1           0        3.846006    1.176431    0.228373
     21          1           0        2.631578    3.322653    0.510900
     22          1           0        0.195991    3.402964    0.195044
     23          1           0       -1.267275   -0.018149    1.885588
     24          1           0       -2.924598   -0.422169    1.422137
     25          1           0       -1.932858   -1.604493    2.327865
     26          1           0       -1.878936   -2.846443   -1.130619
     27          1           0       -1.939668   -3.435844    0.554870
     28          1           0       -3.214015   -2.369950   -0.067665
     29          1           0       -1.878881    2.846494    1.130608
     30          1           0       -1.939581    3.435887   -0.554884
     31          1           0       -3.213962    2.370030    0.067644
     32          1           0       -1.267281    0.018154   -1.885567
     33          1           0       -2.924593    0.422240   -1.422136
     34          1           0       -1.932803    1.604516   -2.327870
 ---------------------------------------------------------------------

 SCF Done:  E(RB3PW91) =  -653.642389088     A.U. after    1 cycles

 The electronic state is 1-A.
 Alpha  occ. eigenvalues --  -14.33674 -14.33674 -10.21641 -10.21641 -10.19945
 Alpha  occ. eigenvalues --  -10.19945 -10.19317 -10.19316 -10.18754 -10.18566
 Alpha  occ. eigenvalues --  -10.17609 -10.17609 -10.17028 -10.17028 -10.16929
 Alpha  occ. eigenvalues --  -10.16928  -0.95708  -0.94043  -0.86419  -0.81690
 Alpha  occ. eigenvalues --   -0.76885  -0.74580  -0.72775  -0.71711  -0.71427
 Alpha  occ. eigenvalues --   -0.65757  -0.65648  -0.61272  -0.60057  -0.56110
 Alpha  occ. eigenvalues --   -0.52193  -0.51412  -0.50329  -0.48292  -0.47531
 Alpha  occ. eigenvalues --   -0.46757  -0.46133  -0.45446  -0.44396  -0.42410
 Alpha  occ. eigenvalues --   -0.41051  -0.40665  -0.39821  -0.39592  -0.39296
 Alpha  occ. eigenvalues --   -0.38219  -0.38215  -0.37416  -0.37255  -0.36909
 Alpha  occ. eigenvalues --   -0.34281  -0.33495  -0.32844  -0.29102  -0.26053
 Alpha  occ. eigenvalues --   -0.24421  -0.20180  -0.18704
 Alpha virt. eigenvalues --   -0.03603  -0.01588   0.00917   0.01899   0.02551
 Alpha virt. eigenvalues --    0.02552   0.03701   0.03933   0.04048   0.04646
 Alpha virt. eigenvalues --    0.05778   0.06035   0.06056   0.06522   0.06882

 Mulliken charges:
               1
     1  C   -0.352223
     2  C   -0.312562
     3  C   -0.367052
     4  C    0.190197
     5  C    0.161512
     6  C   -0.046304
     7  C   -0.367052
     8  C   -0.312563
     9  C   -0.352234
    10  C   -0.046308
    11  N    0.073583
    12  N    0.073586
    13  C   -0.242655
    14  C   -0.288641
    15  C   -0.288641
    16  C   -0.242658
    17  H    0.138499
    18  H    0.146541
    19  H    0.144727
    20  H    0.144727
    21  H    0.146541
    22  H    0.138498
    23  H    0.172672
    24  H    0.149788
    25  H    0.139599
    26  H    0.166248
    27  H    0.148057
    28  H    0.153876
    29  H    0.166248
    30  H    0.148057
    31  H    0.153876
    32  H    0.172673
    33  H    0.149788
    34  H    0.139599
 Sum of Mulliken charges =  -0.00000

 Dipole moment (field-independent basis, Debye):
    X=             -1.9440    Y=              0.0000    Z=             -0.0000  Tot=              1.9440
 Quadrupole moment (field-independent basis, Debye-Ang):
   XX=            -89.7224   YY=            -89.4445   ZZ=           -100.7194
   XY=             -0.0000   XZ=              0.0000   YZ=              1.6225

  Exact polarizability: 222.615   0.000 224.415   0.000   5.923 121.360
 Approx polarizability: 351.606   0.000 361.901   0.000  20.135 180.917

                      1                      2                      3
                      A                      A                      A
 Frequencies --     55.2721               100.4533               103.6458
 Red. masses --      3.7892                 1.8475                 2.4696
 Frc consts  --      0.0068                 0.0110                 0.0156
 IR Inten    --      0.7997                 5.4536                 0.3222

                      4                      5                      6
                      A                      A                      A
 Frequencies --    124.1186               126.1152               147.0735
 Red. masses --      2.9115                 3.0138                 2.9863
 Frc consts  --      0.0264                 0.0282                 0.0381
 IR Inten    --      1.3595                 0.1988                 0.5177

                      7                      8                      9
                      A                      A                      A
 Frequencies --    185.2222               213.6187               258.5321
 Red. masses --      1.8214                 2.5105                 1.4538
 Frc consts  --      0.0368                 0.0675                 0.0573
 IR Inten    --      0.8063                 0.2043                 0.7309

                     10                     11                     12
                      A                      A                      A
 Frequencies --    276.9973               303.2163               315.2669
 Red. masses --      1.5690                 1.4384                 2.0031
 Frc consts  --      0.0709                 0.0779                 0.1173
 IR Inten    --      4.3065                 2.4471                 2.1765

                     13                     14                     15
                      A                      A                      A
 Frequencies --    318.6618               335.9627               360.5248
 Red. masses --      2.7777                 1.6670                 2.3771
 Frc consts  --      0.1662                 0.1109                 0.1820
 IR Inten    --      4.2369                 0.1919                 1.1385

                     16                     17                     18
                      A                      A                      A
 Frequencies --    366.9602               389.4699               453.7969
 Red. masses --      3.3543                 2.8290                 3.0068
 Frc consts  --      0.2661                 0.2528                 0.3648
 IR Inten    --      3.8949                 2.4846                 1.3663

                     19                     20                     21
                      A                      A                      A
 Frequencies --    479.7913               481.4680               533.4305
 Red. masses --      4.5186                 3.4977                 3.7732
 Frc consts  --      0.6129                 0.4777                 0.6326
 IR Inten    --      5.4909                 2.7672                 1.9867

                     22                     23                     24
                      A                      A                      A
 Frequencies --    535.2433               545.9274               547.4893
 Red. masses --      4.0746                 4.0580                 5.6730
 Frc consts  --      0.6878                 0.7126                 1.0019
 IR Inten    --      5.3180                 0.0957                 1.7565

                     25                     26                     27
                      A                      A                      A
 Frequencies --    636.9197               652.4528               674.0973
 Red. masses --      4.1557                 3.9162                 3.0478
 Frc consts  --      0.9933                 0.9822                 0.8160
 IR Inten    --      1.3242                 8.8323                 8.4021

                     28                     29                     30
                      A                      A                      A
 Frequencies --    763.8328               769.4553               774.5768
 Red. masses --      1.3354                 1.8369                 4.8163
 Frc consts  --      0.4591                 0.6408                 1.7025
 IR Inten    --      0.1578                66.3229                 1.0561

                     31                     32                     33
                      A                      A                      A
 Frequencies --    791.1950               824.1580               870.4130
 Red. masses --      5.2417                 2.9388                 1.4405
 Frc consts  --      1.9333                 1.1761                 0.6430
 IR Inten    --      3.1547                49.4890                 0.3423

                     34                     35                     36
                      A                      A                      A
 Frequencies --    888.0851               917.8059               966.1600
 Red. masses --      1.5089                 4.3221                 3.5870
 Frc consts  --      0.7012                 2.1451                 1.9728
 IR Inten    --      2.7348                 2.6999                28.7584

                     37                     38                     39
                      A                      A                      A
 Frequencies --    967.7071               977.2286              1060.9162
 Red. masses --      1.2923                 1.3129                 2.4569
 Frc consts  --      0.7130                 0.7387                 1.6293
 IR Inten    --      0.5764                 0.5340                93.1147

                     40                     41                     42
                      A                      A                      A
 Frequencies --   1063.1054              1088.3638              1088.7335
 Red. masses --      3.9634                 1.3741                 1.3780
 Frc consts  --      2.6392                 0.9590                 0.9624
 IR Inten    --     29.8367                 8.2434                14.3187

                     43                     44                     45
                      A                      A                      A
 Frequencies --   1115.0373              1117.1565              1134.8395
 Red. masses --      1.2889                 1.3106                 1.7976
 Frc consts  --      0.9442                 0.9637                 1.3640
 IR Inten    --     10.3068                 5.1039                 0.0001

                     46                     47                     48
                      A                      A                      A
 Frequencies --   1139.6320              1159.4647              1161.7308
 Red. masses --      1.6403                 1.4393                 1.4373
 Frc consts  --      1.2552                 1.1400                 1.1429
 IR Inten    --      3.2513                 1.8223                46.7754

                     49                     50                     51
                      A                      A                      A
 Frequencies --   1189.2343              1199.2468              1227.7422
 Red. masses --      1.3016                 1.2864                 1.5792
 Frc consts  --      1.0846                 1.0900                 1.4025
 IR Inten    --      0.8749                 2.8501                14.4200

                     52                     53                     54
                      A                      A                      A
 Frequencies --   1233.2883              1242.5234              1264.4337
 Red. masses --      2.5531                 1.7169                 3.9667
 Frc consts  --      2.2880                 1.5617                 3.7366
 IR Inten    --     13.0186                16.5241                 5.9980

                     55                     56                     57
                      A                      A                      A
 Frequencies --   1265.4202              1363.4239              1364.3689
 Red. masses --      2.9458                 1.9436                 3.4662
 Frc consts  --      2.7792                 2.1287                 3.8017
 IR Inten    --     35.5000                21.8358                12.9269

                     58                     59                     60
                      A                      A                      A
 Frequencies --   1395.6586              1399.2539              1428.7927
 Red. masses --      3.5769                 7.1694                 3.0000
 Frc consts  --      4.1050                 8.2703                 3.6083
 IR Inten    --     17.0644                14.2060                93.9450

                     61                     62                     63
                      A                      A                      A
 Frequencies --   1446.1642              1448.6361              1463.9115
 Red. masses --      1.1571                 1.2130                 1.6483
 Frc consts  --      1.4258                 1.4998                 2.0812
 IR Inten    --      0.4240                 8.3050                22.7305

                     64                     65                     66
                      A                      A                      A
 Frequencies --   1469.2102              1475.5591              1479.4941
 Red. masses --      1.3853                 1.0636                 1.0754
 Frc consts  --      1.7618                 1.3644                 1.3869
 IR Inten    --      5.0005                 5.0857                 6.1139

                     67                     68                     69
                      A                      A                      A
 Frequencies --   1481.9408              1490.0506              1493.5133
 Red. masses --      1.3524                 1.0993                 1.0514
 Frc consts  --      1.7499                 1.4381                 1.3818
 IR Inten    --      3.0397                 5.8760                27.1996

                     70                     71                     72
                      A                      A                      A
 Frequencies --   1495.5905              1501.2800              1508.0608
 Red. masses --      1.0981                 1.0523                 1.4892
 Frc consts  --      1.4471                 1.3973                 1.9955
 IR Inten    --     19.0353                 3.8195                17.8844

                     73                     74                     75
                      A                      A                      A
 Frequencies --   1525.1932              1528.7455              1563.6406
 Red. masses --      1.2258                 1.1603                 4.0109
 Frc consts  --      1.6800                 1.5977                 5.7779
 IR Inten    --     21.5543                46.0057                33.4430

                     76                     77                     78
                      A                      A                      A
 Frequencies --   1634.9929              1649.6087              1663.5325
 Red. masses --      5.7633                 5.7286                 6.1380
 Frc consts  --      9.0773                 9.1845                10.0078
 IR Inten    --    243.8866                 2.7475                15.3512

                     79                     80                     81
                      A                      A                      A
 Frequencies --   2949.6754              2950.1897              2969.1775
 Red. masses --      1.0575                 1.0574                 1.0566
 Frc consts  --      5.4212                 5.4223                 5.4881
 IR Inten    --    191.6079                25.1879               237.9690

                     82                     83                     84
                      A                      A                      A
 Frequencies --   2971.0199              3073.7192              3074.4365
 Red. masses --      1.0562                 1.0759                 1.0760
 Frc consts  --      5.4932                 5.9891                 5.9924
 IR Inten    --     69.9556                22.0718                47.6465

                     85                     86                     87
                      A                      A                      A
 Frequencies --   3077.0304              3079.0289              3131.4379
 Red. masses --      1.0853                 1.0848                 1.1026
 Frc consts  --      6.0541                 6.0592                 6.3704
 IR Inten    --     61.5888                24.6719                14.6070

                     88                     89                     90
                      A                      A                      A
 Frequencies --   3131.4468              3181.3532              3181.6238
 Red. masses --      1.1025                 1.0962                 1.0961
 Frc consts  --      6.3699                 6.5368                 6.5371
 IR Inten    --     22.1530                 7.5276                 8.5547

                     91                     92                     93
                      A                      A                      A
 Frequencies --   3187.1689              3188.4070              3205.3107
 Red. masses --      1.0860                 1.0860                 1.0952
 Frc consts  --      6.4999                 6.5049                 6.6298
 IR Inten    --      5.1537                 0.5125                 8.6384

                     94                     95                     96
                      A                      A                      A
 Frequencies --   3207.2999              3226.9499              3227.0886
 Red. masses --      1.0945                 1.0926                 1.0924
 Frc consts  --      6.6336                 6.7032                 6.7028
 IR Inten    --     46.2094                22.9540                 0.6473

 - Thermochemistry -
 -------------------
 Temperature   298.150 Kelvin.  Pressure   1.00000 Atm.
 Atom     1 has atomic number  6 and mass  12.00000

 Molecular mass:   214.14700 amu.
 Principal axes and moments of inertia in atomic units:
                           1         2         3
     Eigenvalues --  2780.625832877.803395011.34655
           X            1.00000   0.00000   0.00000
           Y           -0.00000   1.00000  -0.00089
           Z           -0.00000   0.00089   1.00000
 This molecule is an asymmetric top.
 Rotational symmetry number  1.
 Warning -- assumption of classical behavior for rotation
           may cause significant error
 Rotational temperatures (Kelvin)      0.03115     0.03010     0.01728
 Rotational constants (GHZ):           0.64904     0.62712     0.36013
 Zero-point vibrational energy     771987.3 (Joules/Mol)
                                  184.50940 (Kcal/Mol)
 Warning -- explicit consideration of  24 degrees of freedom as
           vibrations may cause significant error
 Vibrational temperatures:     79.52   144.53   149.12   178.58   181.45
          (Kelvin)            211.61   266.49   307.35   371.97   398.54
                              436.26   453.60   458.48   483.37   518.71
                              527.97   560.36   652.91   690.31   692.72
                              767.49   770.09   785.47   787.71   916.38
                              938.73   969.87  1098.98  1107.07  1114.44
                             1138.35  1185.78  1252.33  1277.75  1320.52
                             1390.09  1392.31  1406.01  1526.42  1529.57
                             1565.91  1566.44  1604.29  1607.34  1632.78
                             1639.67  1668.21  1671.47  1711.04  1725.45
                             1766.44  1774.42  1787.71  1819.24  1820.66
                             1961.66  1963.02  2008.04  2013.21  2055.71
                             2080.71  2084.26  2106.24  2113.86  2123.00
                             2128.66  2132.18  2143.85  2148.83  2151.82
                             2160.00  2169.76  2194.41  2199.52  2249.73
                             2352.39  2373.42  2393.45  4243.92  4244.66
                             4271.98  4274.63  4422.39  4423.42  4427.15
                             4430.03  4505.44  4505.45  4577.25  4577.64
                             4585.62  4587.40  4611.72  4614.58  4642.86
                             4643.05

 Zero-point correction=                           0.294034 (Hartree/Particle)
 Thermal correction to Energy=                    0.308922
 Thermal correction to Enthalpy=                  0.309866
 Thermal correction to Gibbs Free Energy=         0.253413
 Sum of electronic and zero-point Energies=           -653.348355
 Sum of electronic and thermal Energies=              -653.333467
 Sum of electronic and thermal Enthalpies=            -653.332523
 Sum of electronic and thermal Free Energies=         -653.388976

                     E (Thermal)             CV                S
                      KCal/Mol        Cal/Mol-Kelvin    Cal/Mol-Kelvin
 Total                  193.851             59.220            118.815
 Electronic               0.000              0.000              0.000
 Translational            0.889              2.981             41.988
 Rotational               0.889              2.981             32.061
 Vibrational            192.074             53.258             44.766
 Vibration     1          0.596              1.975              4.619
 Vibration     2          0.604              1.949              3.446
 Vibration     3          0.605              1.946              3.385
 Vibration     4          0.610              1.929              3.035
 Vibration     5          0.611              1.927              3.004
 Vibration     6          0.617              1.906              2.710
 Vibration     7          0.631              1.860              2.275
 Vibration     8          0.644              1.820              2.013
 Vibration     9          0.667              1.748              1.672
 Vibration    10          0.678              1.716              1.552
 Vibration    11          0.695              1.668              1.399
 Vibration    12          0.703              1.645              1.335
 Vibration    13          0.705              1.638              1.317
 Vibration    14          0.717              1.604              1.231
 Vibration    15          0.735              1.554              1.120
 Vibration    16          0.740              1.540              1.092
 Vibration    17          0.757              1.493              1.002
 Vibration    18          0.812              1.352              0.784
 Vibration    19          0.836              1.295              0.711
 Vibration    20          0.838              1.291              0.706
 Vibration    21          0.888              1.176              0.580
 Vibration    22          0.890              1.172              0.576
 Vibration    23          0.901              1.149              0.553
 Vibration    24          0.903              1.145              0.549

 Optimization completed.
    -- Stationary point found.
 Normal termination of Gaussian 09 at Thu Dec 19 10:25:45 2024.
