 Gaussian 09, Revision E.01,
 Gaussian 09:  ES64L-G09RevE.01 30-Nov-2015

 -----------------------------------------------------
 # opt freq b3pw91/6-31+g(d,p) EmpiricalDispersion=GD3
 -----------------------------------------------------

 ----------
 [No Title]
 ----------
 Symbolic Z-matrix:
 Charge =  1 Multiplicity = 1

 SCF Done:  E(RB3PW91) =  -654.052193441     A.U. after   14 cycles
 SCF Done:  E(RB3PW91) =  -654.051188769     A.U. after   12 cycles
 SCF Done:  E(RB3PW91) =  -654.052297667     A.U. after    8 cycles
 SCF Done:  E(RB3PW91) =  -654.052344621     A.U. after   10 cycles
 SCF Done:  E(RB3PW91) =  -654.052350810     A.U. after   11 cycles
 SCF Done:  E(RB3PW91) =  -654.052332485     A.U. after   10 cycles
 SCF Done:  E(RB3PW91) =  -654.052362791     A.U. after   10 cycles
 SCF Done:  E(RB3PW91) =  -654.052367537     A.U. after    9 cycles
 SCF Done:  E(RB3PW91) =  -654.052368194     A.U. after    9 cycles
 Optimization completed.
    -- Stationary point found.
 Normal termination of Gaussian 09 at Thu Dec 19 10:59:16 2024.

 ----------------------------------------------------------------------
 #N Geom=AllCheck Guess=TCheck SCRF=Check GenChk RB3PW91/6-31+G(d,p) Fr
 eq
 ----------------------------------------------------------------------

 Structure from the checkpoint file:  "B3PW91D3DMANyang.chk"
 ----------
 [No Title]
 ----------
 Charge =  1 Multiplicity = 1

                         Standard orientation:
 ---------------------------------------------------------------------
 Center     Atomic      Atomic             Coordinates (Angstroms)
 Number     Number       Type             X           Y           Z
 ---------------------------------------------------------------------
      1          6           0        0.737016   -2.438525    0.000124
      2          6           0        2.146711   -2.408358    0.000121
      3          6           0        2.803283   -1.201028    0.000041
      4          6           0        2.089516    0.024667   -0.000029
      5          6           0        0.654075    0.011894   -0.000015
      6          6           0        0.021383   -1.265582    0.000052
      7          6           0        2.777144    1.264691   -0.000110
      8          6           0        2.088683    2.453726   -0.000170
      9          6           0        0.678374    2.449820   -0.000140
     10          6           0       -0.027068    1.267646   -0.000060
     11          7           0       -1.449736   -1.301103    0.000025
     12          7           0       -1.485030    1.266598    0.000002
     13          6           0       -2.016780   -1.902197   -1.235641
     14          6           0       -2.016842   -1.901987    1.235764
     15          6           0       -2.055200    1.863598    1.223357
     16          6           0       -2.055314    1.863483   -1.223356
     17          1           0        0.222711   -3.395194    0.000174
     18          1           0        2.702497   -3.340075    0.000175
     19          1           0        3.888995   -1.170079    0.000032
     20          1           0        3.863223    1.258802   -0.000123
     21          1           0        2.621953    3.398841   -0.000232
     22          1           0        0.143509    3.395113   -0.000174
     23          1           0       -1.686092   -0.183371   -0.000086
     24          1           0       -3.099630   -1.760106   -1.232538
     25          1           0       -1.578815   -1.403898   -2.101340
     26          1           0       -1.789447   -2.969376   -1.279239
     27          1           0       -3.099690   -1.759885    1.232588
     28          1           0       -1.578912   -1.403549    2.101401
     29          1           0       -1.789526   -2.969162    1.279551
     30          1           0       -1.611111    1.386798    2.099884
     31          1           0       -1.866381    2.942257    1.279039
     32          1           0       -3.135945    1.697357    1.231445
     33          1           0       -1.611293    1.386614   -2.099880
     34          1           0       -3.136057    1.697224   -1.231336
     35          1           0       -1.866518    2.942140   -1.279147
 ---------------------------------------------------------------------

 SCF Done:  E(RB3PW91) =  -654.052368194     A.U. after    1 cycles

 The electronic state is 1-A.
 Alpha  occ. eigenvalues --  -14.55861 -14.50745 -10.36787 -10.36014 -10.36014
 Alpha  occ. eigenvalues --  -10.35675 -10.34029 -10.33770 -10.33770 -10.32839
 Alpha  occ. eigenvalues --  -10.32757 -10.31857 -10.31516 -10.31448 -10.31136
 Alpha  occ. eigenvalues --  -10.31071  -1.14711  -1.09701  -1.01526  -0.96352
 Alpha  occ. eigenvalues --   -0.91917  -0.89023  -0.88661  -0.86931  -0.86032
 Alpha  occ. eigenvalues --   -0.82707  -0.79908  -0.77105  -0.75096  -0.72356
 Alpha  occ. eigenvalues --   -0.68475  -0.66964  -0.66195  -0.63973  -0.63608
 Alpha  occ. eigenvalues --   -0.62570  -0.60768  -0.60125  -0.59547  -0.57615
 Alpha  occ. eigenvalues --   -0.56616  -0.56563  -0.55298  -0.54839  -0.54260
 Alpha  occ. eigenvalues --   -0.54004  -0.53078  -0.52718  -0.52167  -0.51582
 Alpha  occ. eigenvalues --   -0.50998  -0.48348  -0.47829  -0.46677  -0.42579
 Alpha  occ. eigenvalues --   -0.39554  -0.38790  -0.35748
 Alpha virt. eigenvalues --   -0.18702  -0.15551  -0.11922  -0.11387  -0.08944
 Alpha virt. eigenvalues --   -0.08346  -0.08206  -0.07928  -0.07305  -0.06225
 Alpha virt. eigenvalues --   -0.06026  -0.05681  -0.05310  -0.04737  -0.04579

 Mulliken charges:
               1
     1  C   -0.134263
     2  C   -0.272603
     3  C   -0.172047
     4  C   -0.230047
     5  C    0.042945
     6  C   -0.048999
     7  C   -0.199869
     8  C   -0.260053
     9  C   -0.143209
    10  C   -0.053596
    11  N   -0.293751
    12  N   -0.348754
    13  C   -0.199796
    14  C   -0.199795
    15  C   -0.193069
    16  C   -0.193035
    17  H    0.167953
    18  H    0.188939
    19  H    0.184371
    20  H    0.182910
    21  H    0.187596
    22  H    0.168674
    23  H    0.501790
    24  H    0.199001
    25  H    0.202993
    26  H    0.203461
    27  H    0.199000
    28  H    0.202990
    29  H    0.203464
    30  H    0.182451
    31  H    0.187454
    32  H    0.183494
    33  H    0.182452
    34  H    0.183495
    35  H    0.187455
 Sum of Mulliken charges =   1.00000

 Dipole moment (field-independent basis, Debye):
    X=             -3.9519    Y=             -1.2979    Z=              0.0001  Tot=              4.1596
 Quadrupole moment (field-independent basis, Debye-Ang):
   XX=            -62.2504   YY=            -64.1857   ZZ=            -91.2431
   XY=              2.5166   XZ=             -0.0003   YZ=             -0.0009

  Exact polarizability: 193.955  -0.613 210.695  -0.001  -0.005 108.995
 Approx polarizability: 295.777  -0.729 356.706  -0.001  -0.010 161.702

                      1                      2                      3
                      A                      A                      A
 Frequencies --     28.7437                86.7942               129.6416
 Red. masses --      3.4968                 2.7276                 3.3163
 Frc consts  --      0.0017                 0.0121                 0.0328
 IR Inten    --      0.0525                 0.1728                 0.4113

                      4                      5                      6
                      A                      A                      A
 Frequencies --    147.1665               168.5835               178.6209
 Red. masses --      2.3421                 2.7431                 3.1738
 Frc consts  --      0.0299                 0.0459                 0.0597
 IR Inten    --      0.1200                27.3709                 3.9474

                      7                      8                      9
                      A                      A                      A
 Frequencies --    190.2366               230.2616               237.0363
 Red. masses --      3.6532                 1.1225                 1.4984
 Frc consts  --      0.0779                 0.0351                 0.0496
 IR Inten    --      0.1788                 0.0570                 0.9361

                     10                     11                     12
                      A                      A                      A
 Frequencies --    248.2517               263.2382               270.9232
 Red. masses --      1.0896                 2.5474                 1.1105
 Frc consts  --      0.0396                 0.1040                 0.0480
 IR Inten    --      0.0097                 1.3903                 2.8958

                     13                     14                     15
                      A                      A                      A
 Frequencies --    279.2977               323.5807               324.9741
 Red. masses --      1.9860                 3.3490                 2.7007
 Frc consts  --      0.0913                 0.2066                 0.1680
 IR Inten    --      0.0256                 0.1072                 3.5595

                     16                     17                     18
                      A                      A                      A
 Frequencies --    383.4874               435.1916               455.2076
 Red. masses --      3.7057                 3.1334                 3.0023
 Frc consts  --      0.3211                 0.3496                 0.3665
 IR Inten    --     13.1251                47.1784                 0.4015

                     19                     20                     21
                      A                      A                      A
 Frequencies --    475.4240               501.6431               531.4178
 Red. masses --      3.3598                 5.2471                 4.4881
 Frc consts  --      0.4474                 0.7780                 0.7468
 IR Inten    --      0.4588                35.9633                22.3155

                     22                     23                     24
                      A                      A                      A
 Frequencies --    538.7613               538.9169               573.0756
 Red. masses --      3.5769                 4.5019                 3.8349
 Frc consts  --      0.6117                 0.7704                 0.7420
 IR Inten    --      0.0131                15.1875                 2.9345

                     25                     26                     27
                      A                      A                      A
 Frequencies --    645.5180               669.1324               676.3721
 Red. masses --      4.1089                 3.1264                 3.5213
 Frc consts  --      1.0088                 0.8247                 0.9491
 IR Inten    --      0.1201                 0.0879               121.9186

                     28                     29                     30
                      A                      A                      A
 Frequencies --    773.7528               780.0660               787.3538
 Red. masses --      4.7459                 2.2375                 1.2940
 Frc consts  --      1.6741                 0.8022                 0.4726
 IR Inten    --      3.0292                62.1801                 0.2996

                     31                     32                     33
                      A                      A                      A
 Frequencies --    794.1430               844.2901               887.2585
 Red. masses --      5.2905                 2.1642                 3.8642
 Frc consts  --      1.9658                 0.9090                 1.7923
 IR Inten    --      0.5717                35.2797               101.8226

                     34                     35                     36
                      A                      A                      A
 Frequencies --    925.2137               929.8198               947.8278
 Red. masses --      3.7442                 1.3727                 1.4396
 Frc consts  --      1.8884                 0.6992                 0.7620
 IR Inten    --     39.4435                 0.1499                 1.7661

                     37                     38                     39
                      A                      A                      A
 Frequencies --    998.9207              1010.0213              1015.8633
 Red. masses --      1.3305                 1.3451                 3.1876
 Frc consts  --      0.7822                 0.8085                 1.9382
 IR Inten    --      0.0056                 0.4143                58.9070

                     40                     41                     42
                      A                      A                      A
 Frequencies --   1031.9227              1047.8111              1048.0087
 Red. masses --      1.9378                 3.5087                 1.7232
 Frc consts  --      1.2158                 2.2697                 1.1151
 IR Inten    --     12.2760                12.0627                15.0350

                     43                     44                     45
                      A                      A                      A
 Frequencies --   1094.1875              1105.1265              1113.1885
 Red. masses --      1.2154                 1.9099                 1.2471
 Frc consts  --      0.8573                 1.3743                 0.9105
 IR Inten    --      0.7598                72.7167                 0.8787

                     46                     47                     48
                      A                      A                      A
 Frequencies --   1120.8516              1174.6663              1192.0600
 Red. masses --      1.8270                 1.3544                 2.3200
 Frc consts  --      1.3523                 1.1011                 1.9423
 IR Inten    --      2.2362               141.7150                 5.8333

                     49                     50                     51
                      A                      A                      A
 Frequencies --   1193.7054              1200.2619              1209.1207
 Red. masses --      1.4689                 1.3398                 2.9787
 Frc consts  --      1.2332                 1.1372                 2.5657
 IR Inten    --      4.2362                35.8514                 9.6992

                     52                     53                     54
                      A                      A                      A
 Frequencies --   1214.2922              1228.9540              1242.7722
 Red. masses --      1.4071                 1.4194                 1.5524
 Frc consts  --      1.2224                 1.2631                 1.4127
 IR Inten    --     43.5950                35.5584                40.4109

                     55                     56                     57
                      A                      A                      A
 Frequencies --   1254.4709              1287.0303              1307.7195
 Red. masses --      1.9498                 2.3249                 2.4355
 Frc consts  --      1.8079                 2.2690                 2.4539
 IR Inten    --      7.6919                 3.3852                25.4383

                     58                     59                     60
                      A                      A                      A
 Frequencies --   1360.1182              1403.3907              1418.9201
 Red. masses --      1.7165                 4.0873                 5.8575
 Frc consts  --      1.8709                 4.7429                 6.9483
 IR Inten    --    367.3447                11.1589                 0.8012

                     61                     62                     63
                      A                      A                      A
 Frequencies --   1422.9868              1443.6341              1448.1455
 Red. masses --      2.0932                 1.1426                 1.1412
 Frc consts  --      2.4973                 1.4030                 1.4100
 IR Inten    --    102.4544                 0.1663                10.9691

                     64                     65                     66
                      A                      A                      A
 Frequencies --   1474.4067              1477.7520              1481.3006
 Red. masses --      1.6777                 1.0398                 1.2585
 Frc consts  --      2.1488                 1.3379                 1.6270
 IR Inten    --      0.3486                 0.0377                 1.4680

                     67                     68                     69
                      A                      A                      A
 Frequencies --   1487.1232              1490.9513              1492.4067
 Red. masses --      1.0468                 1.2457                 1.0430
 Frc consts  --      1.3640                 1.6314                 1.3687
 IR Inten    --      1.8093                 2.3932                 2.9229

                     70                     71                     72
                      A                      A                      A
 Frequencies --   1499.8968              1507.3775              1508.4274
 Red. masses --      1.0434                 1.5422                 1.0595
 Frc consts  --      1.3830                 2.0646                 1.4204
 IR Inten    --     15.9318                 4.5421                12.5700

                     73                     74                     75
                      A                      A                      A
 Frequencies --   1513.0815              1520.4138              1532.1129
 Red. masses --      1.2345                 1.0698                 1.6577
 Frc consts  --      1.6652                 1.4571                 2.2927
 IR Inten    --     14.7149                31.3912               345.6631

                     76                     77                     78
                      A                      A                      A
 Frequencies --   1580.7275              1636.4138              1664.9569
 Red. masses --      2.5150                 6.8966                 4.9716
 Frc consts  --      3.7026                10.8811                 8.1199
 IR Inten    --    200.6453                 3.1663                63.8440

                     79                     80                     81
                      A                      A                      A
 Frequencies --   1687.2518              1698.6607              1909.9300
 Red. masses --      6.6277                 1.0770                 1.1060
 Frc consts  --     11.1165                 1.8309                 2.3770
 IR Inten    --     23.5299                 2.9927               531.6626

                     82                     83                     84
                      A                      A                      A
 Frequencies --   3045.8661              3048.9381              3077.4059
 Red. masses --      1.0352                 1.0362                 1.0317
 Frc consts  --      5.6582                 5.6755                 5.7566
 IR Inten    --     18.6056                20.2090                 6.5273

                     85                     86                     87
                      A                      A                      A
 Frequencies --   3080.2391              3131.1045              3131.5568
 Red. masses --      1.0325                 1.1013                 1.1026
 Frc consts  --      5.7716                 6.3612                 6.3709
 IR Inten    --      7.1505                19.0275                 0.8348

                     88                     89                     90
                      A                      A                      A
 Frequencies --   3162.4156              3164.2801              3174.8048
 Red. masses --      1.1054                 1.1058                 1.1077
 Frc consts  --      6.5132                 6.5237                 6.5782
 IR Inten    --      3.4352                15.6701                 0.0006

                     91                     92                     93
                      A                      A                      A
 Frequencies --   3175.7648              3188.3385              3189.5879
 Red. masses --      1.1068                 1.1067                 1.1075
 Frc consts  --      6.5766                 6.6282                 6.6383
 IR Inten    --      6.0368                 0.8725                 4.6842

                     94                     95                     96
                      A                      A                      A
 Frequencies --   3207.4003              3207.5932              3212.4791
 Red. masses --      1.0886                 1.0889                 1.0918
 Frc consts  --      6.5984                 6.6009                 6.6388
 IR Inten    --      0.4975                 3.6575                 0.1238

                     97                     98                     99
                      A                      A                      A
 Frequencies --   3214.0795              3231.6994              3234.1878
 Red. masses --      1.0915                 1.0977                 1.0974
 Frc consts  --      6.6433                 6.7548                 6.7633
 IR Inten    --      4.0742                 1.4074                 0.7635

 - Thermochemistry -
 -------------------
 Temperature   298.150 Kelvin.  Pressure   1.00000 Atm.
 Atom     1 has atomic number  6 and mass  12.00000

 Molecular mass:   215.15482 amu.
 Principal axes and moments of inertia in atomic units:
                           1         2         3
     Eigenvalues --  2799.389722985.224855048.47686
           X            1.00000   0.00244   0.00001
           Y           -0.00244   1.00000   0.00004
           Z           -0.00001  -0.00004   1.00000
 This molecule is an asymmetric top.
 Rotational symmetry number  1.
 Warning -- assumption of classical behavior for rotation
           may cause significant error
 Rotational temperatures (Kelvin)      0.03094     0.02901     0.01716
 Rotational constants (GHZ):           0.64469     0.60456     0.35748
 Zero-point vibrational energy     806464.3 (Joules/Mol)
                                  192.74960 (Kcal/Mol)
 Warning -- explicit consideration of  24 degrees of freedom as
           vibrations may cause significant error
 Vibrational temperatures:     41.36   124.88   186.53   211.74   242.55
          (Kelvin)            257.00   273.71   331.29   341.04   357.18
                              378.74   389.80   401.85   465.56   467.56
                              551.75   626.14   654.94   684.03   721.75
                              764.59   775.16   775.38   824.53   928.76
                              962.73   973.15  1113.26  1122.34  1132.83
                             1142.59  1214.74  1276.57  1331.17  1337.80
                             1363.71  1437.22  1453.19  1461.60  1484.70
                             1507.56  1507.85  1574.29  1590.03  1601.63
                             1612.65  1690.08  1715.11  1717.47  1726.91
                             1739.65  1747.09  1768.19  1788.07  1804.90
                             1851.75  1881.51  1956.90  2019.16  2041.51
                             2047.36  2077.06  2083.56  2121.34  2126.15
                             2131.26  2139.64  2145.14  2147.24  2158.01
                             2168.78  2170.29  2176.98  2187.53  2204.37
                             2274.31  2354.43  2395.50  2427.58  2443.99
                             2747.96  4382.32  4386.74  4427.70  4431.77
                             4504.96  4505.61  4550.01  4552.69  4567.83
                             4569.21  4587.30  4589.10  4614.73  4615.01
                             4622.04  4624.34  4649.69  4653.27

 Zero-point correction=                           0.307166 (Hartree/Particle)
 Thermal correction to Energy=                    0.322074
 Thermal correction to Enthalpy=                  0.323018
 Thermal correction to Gibbs Free Energy=         0.266223
 Sum of electronic and zero-point Energies=           -653.745202
 Sum of electronic and thermal Energies=              -653.730294
 Sum of electronic and thermal Enthalpies=            -653.729350
 Sum of electronic and thermal Free Energies=         -653.786145

                     E (Thermal)             CV                S
                      KCal/Mol        Cal/Mol-Kelvin    Cal/Mol-Kelvin
 Total                  202.105             59.406            119.536
 Electronic               0.000              0.000              0.000
 Translational            0.889              2.981             42.002
 Rotational               0.889              2.981             32.112
 Vibrational            200.327             53.444             45.422
 Vibration     1          0.593              1.984              5.914
 Vibration     2          0.601              1.958              3.731
 Vibration     3          0.612              1.924              2.951
 Vibration     4          0.617              1.906              2.709
 Vibration     5          0.625              1.881              2.451
 Vibration     6          0.629              1.869              2.343
 Vibration     7          0.634              1.853              2.226
 Vibration     8          0.652              1.795              1.877
 Vibration     9          0.656              1.784              1.825
 Vibration    10          0.662              1.766              1.743
 Vibration    11          0.670              1.740              1.640
 Vibration    12          0.675              1.727              1.590
 Vibration    13          0.680              1.712              1.538
 Vibration    14          0.708              1.628              1.292
 Vibration    15          0.709              1.626              1.285
 Vibration    16          0.753              1.505              1.025
 Vibration    17          0.796              1.394              0.842
 Vibration    18          0.814              1.349              0.780
 Vibration    19          0.832              1.305              0.723
 Vibration    20          0.857              1.246              0.654
 Vibration    21          0.886              1.180              0.584
 Vibration    22          0.894              1.164              0.568
 Vibration    23          0.894              1.164              0.568
 Vibration    24          0.929              1.089              0.498

 Optimization completed.
    -- Stationary point found.
 Normal termination of Gaussian 09 at Thu Dec 19 11:10:56 2024.
