 Gaussian 09, Revision E.01,
 Gaussian 09:  ES64L-G09RevE.01 30-Nov-2015

 --------------------------------------------------------
 # opt freq cam-b3lyp/6-31+g(d,p) empiricaldispersion=gd3
 --------------------------------------------------------

 ----------
 [No Title]
 ----------
 Symbolic Z-matrix:
 Charge =  0 Multiplicity = 1

 SCF Done:  E(RCAM-B3LYP) =  -653.499819973     A.U. after   16 cycles
 SCF Done:  E(RCAM-B3LYP) =  -653.499537729     A.U. after   14 cycles
 SCF Done:  E(RCAM-B3LYP) =  -653.500018384     A.U. after   10 cycles
 SCF Done:  E(RCAM-B3LYP) =  -653.499582545     A.U. after   14 cycles
 SCF Done:  E(RCAM-B3LYP) =  -653.500176102     A.U. after   10 cycles
 SCF Done:  E(RCAM-B3LYP) =  -653.500210259     A.U. after   12 cycles
 SCF Done:  E(RCAM-B3LYP) =  -653.500224089     A.U. after   12 cycles
 SCF Done:  E(RCAM-B3LYP) =  -653.500226758     A.U. after   11 cycles
 SCF Done:  E(RCAM-B3LYP) =  -653.500227500     A.U. after   10 cycles
 SCF Done:  E(RCAM-B3LYP) =  -653.500227850     A.U. after   10 cycles
 SCF Done:  E(RCAM-B3LYP) =  -653.500227998     A.U. after   10 cycles
 SCF Done:  E(RCAM-B3LYP) =  -653.500228164     A.U. after    9 cycles
 SCF Done:  E(RCAM-B3LYP) =  -653.500228248     A.U. after    9 cycles
 Optimization completed.
    -- Stationary point found.
 Normal termination of Gaussian 09 at Tue Dec 17 18:12:46 2024.

 ----------------------------------------------------------------------
 #N Geom=AllCheck Guess=TCheck SCRF=Check GenChk RCAM-B3LYP/6-31+G(d,p)
  Freq
 ----------------------------------------------------------------------

 Structure from the checkpoint file:  "camb3lypD3DMAN.chk"
 ----------
 [No Title]
 ----------
 Charge =  0 Multiplicity = 1

                         Standard orientation:
 ---------------------------------------------------------------------
 Center     Atomic      Atomic             Coordinates (Angstroms)
 Number     Number       Type             X           Y           Z
 ---------------------------------------------------------------------
      1          6           0        0.686620   -2.432409   -0.189707
      2          6           0        2.088629   -2.395184   -0.316166
      3          6           0        2.752974   -1.210697   -0.178043
      4          6           0        2.033185   -0.000631    0.000011
      5          6           0        0.603837   -0.000180    0.000024
      6          6           0       -0.060243   -1.286595    0.011160
      7          6           0        2.753740    1.208981    0.178042
      8          6           0        2.090146    2.393892    0.316145
      9          6           0        0.688159    2.432000    0.189690
     10          6           0       -0.059428    1.286652   -0.011136
     11          7           0       -1.448494   -1.376156    0.240086
     12          7           0       -1.447622    1.377078   -0.240067
     13          6           0       -1.907594   -0.918617    1.543595
     14          6           0       -2.125935   -2.584518   -0.174187
     15          6           0       -2.124301    2.585903    0.174106
     16          6           0       -1.907017    0.919696   -1.543526
     17          1           0        0.195513   -3.397065   -0.194882
     18          1           0        2.634415   -3.320983   -0.468936
     19          1           0        3.837361   -1.171262   -0.208467
     20          1           0        3.838103    1.168862    0.208450
     21          1           0        2.636518    3.319348    0.468889
     22          1           0        0.197661    3.396965    0.194841
     23          1           0       -1.343165   -0.047296    1.866372
     24          1           0       -2.962807   -0.634484    1.485855
     25          1           0       -1.796067   -1.710321    2.303967
     26          1           0       -1.853055   -2.840647   -1.200601
     27          1           0       -1.915275   -3.454260    0.472898
     28          1           0       -3.204825   -2.405788   -0.142408
     29          1           0       -1.851249    2.841952    1.200494
     30          1           0       -1.913102    3.455455   -0.473059
     31          1           0       -3.203303    2.407847    0.142354
     32          1           0       -1.343147    0.047975   -1.866203
     33          1           0       -2.962413    0.636247   -1.485756
     34          1           0       -1.794979    1.711243   -2.303987
 ---------------------------------------------------------------------

 SCF Done:  E(RCAM-B3LYP) =  -653.500228248     A.U. after    1 cycles

 The electronic state is 1-A.
 Alpha  occ. eigenvalues --  -14.41101 -14.41101 -10.30095 -10.30094 -10.28259
 Alpha  occ. eigenvalues --  -10.28259 -10.27618 -10.27617 -10.27283 -10.27117
 Alpha  occ. eigenvalues --  -10.26224 -10.26224 -10.25577 -10.25575 -10.25543
 Alpha  occ. eigenvalues --  -10.25543  -1.03212  -1.01485  -0.94595  -0.89766
 Alpha  occ. eigenvalues --   -0.84644  -0.82381  -0.80347  -0.79019  -0.78757
 Alpha  occ. eigenvalues --   -0.72975  -0.72972  -0.68732  -0.67307  -0.63141
 Alpha  occ. eigenvalues --   -0.59092  -0.58102  -0.57305  -0.54886  -0.54286
 Alpha  occ. eigenvalues --   -0.53278  -0.52603  -0.52094  -0.50921  -0.48890
 Alpha  occ. eigenvalues --   -0.47769  -0.47140  -0.46203  -0.45899  -0.45511
 Alpha  occ. eigenvalues --   -0.44714  -0.44444  -0.43541  -0.43301  -0.43194
 Alpha  occ. eigenvalues --   -0.40348  -0.39789  -0.39153  -0.34853  -0.31645
 Alpha  occ. eigenvalues --   -0.29415  -0.25648  -0.23726
 Alpha virt. eigenvalues --    0.00617   0.02720   0.02908   0.03765   0.04233
 Alpha virt. eigenvalues --    0.04830   0.05505   0.05640   0.06403   0.06992
 Alpha virt. eigenvalues --    0.07700   0.07715   0.07736   0.08060   0.08770

 Mulliken charges:
               1
     1  C   -0.383584
     2  C   -0.338265
     3  C   -0.242258
     4  C    0.005017
     5  C    0.089326
     6  C    0.144641
     7  C   -0.242196
     8  C   -0.338346
     9  C   -0.383659
    10  C    0.144624
    11  N   -0.062631
    12  N   -0.062610
    13  C   -0.179678
    14  C   -0.239925
    15  C   -0.239927
    16  C   -0.179686
    17  H    0.121689
    18  H    0.129549
    19  H    0.126496
    20  H    0.126495
    21  H    0.129549
    22  H    0.121689
    23  H    0.164573
    24  H    0.138793
    25  H    0.132002
    26  H    0.155897
    27  H    0.140508
    28  H    0.145078
    29  H    0.155895
    30  H    0.140509
    31  H    0.145076
    32  H    0.164570
    33  H    0.138790
    34  H    0.132001
 Sum of Mulliken charges =  -0.00000

 Dipole moment (field-independent basis, Debye):
    X=             -1.5109    Y=              0.0004    Z=             -0.0000  Tot=              1.5109
 Quadrupole moment (field-independent basis, Debye-Ang):
   XX=            -91.0873   YY=            -90.5474   ZZ=           -101.8625
   XY=              0.0002   XZ=              0.0005   YZ=              1.7517

  Exact polarizability: 214.232   0.002 218.773   0.002   5.757 120.387
 Approx polarizability: 253.641   0.004 266.723   0.004  12.092 151.553

                      1                      2                      3
                      A                      A                      A
 Frequencies --     51.2757                99.0047               115.8968
 Red. masses --      3.7739                 2.4186                 1.8287
 Frc consts  --      0.0058                 0.0140                 0.0145
 IR Inten    --      0.6007                 0.3775                 3.0252

                      4                      5                      6
                      A                      A                      A
 Frequencies --    128.1577               128.7826               154.0479
 Red. masses --      2.9351                 3.0052                 2.5624
 Frc consts  --      0.0284                 0.0294                 0.0358
 IR Inten    --      1.2852                 0.4471                 0.6909

                      7                      8                      9
                      A                      A                      A
 Frequencies --    179.3768               216.0542               252.4455
 Red. masses --      1.8531                 2.3188                 1.5447
 Frc consts  --      0.0351                 0.0638                 0.0580
 IR Inten    --      0.9840                 0.0038                 1.1124

                     10                     11                     12
                      A                      A                      A
 Frequencies --    274.5407               311.7787               320.7318
 Red. masses --      1.8157                 1.5855                 1.9225
 Frc consts  --      0.0806                 0.0908                 0.1165
 IR Inten    --      4.6541                 2.5765                 0.8133

                     13                     14                     15
                      A                      A                      A
 Frequencies --    327.1831               338.6922               365.9526
 Red. masses --      2.1211                 1.5716                 2.5533
 Frc consts  --      0.1338                 0.1062                 0.2015
 IR Inten    --      2.0712                 0.3596                 0.8792

                     16                     17                     18
                      A                      A                      A
 Frequencies --    379.8440               397.3253               457.9805
 Red. masses --      3.4765                 2.8403                 2.9471
 Frc consts  --      0.2955                 0.2642                 0.3642
 IR Inten    --      4.2411                 2.6958                 1.8347

                     19                     20                     21
                      A                      A                      A
 Frequencies --    487.0528               493.2300               545.4657
 Red. masses --      4.6355                 3.4145                 4.2526
 Frc consts  --      0.6479                 0.4894                 0.7455
 IR Inten    --      4.9188                 2.2730                 5.8192

                     22                     23                     24
                      A                      A                      A
 Frequencies --    546.2396               551.5725               558.0764
 Red. masses --      3.7180                 3.9610                 5.3778
 Frc consts  --      0.6536                 0.7100                 0.9868
 IR Inten    --      1.3771                 0.0111                 2.7830

                     25                     26                     27
                      A                      A                      A
 Frequencies --    648.0510               668.4535               688.6234
 Red. masses --      4.1785                 3.7816                 2.8693
 Frc consts  --      1.0339                 0.9956                 0.8017
 IR Inten    --      3.0006                 9.1419                 7.2910

                     28                     29                     30
                      A                      A                      A
 Frequencies --    783.5348               785.0706               790.3858
 Red. masses --      1.3434                 5.1957                 1.6568
 Frc consts  --      0.4859                 1.8868                 0.6098
 IR Inten    --      0.0186                 1.0274                73.2839

                     31                     32                     33
                      A                      A                      A
 Frequencies --    801.2947               854.3098               901.9830
 Red. masses --      5.2754                 3.3696                 1.4658
 Frc consts  --      1.9957                 1.4490                 0.7026
 IR Inten    --      3.4398                39.7665                 0.0374

                     34                     35                     36
                      A                      A                      A
 Frequencies --    917.9910               925.1283               973.3642
 Red. masses --      1.5192                 4.1853                 3.5592
 Frc consts  --      0.7543                 2.1105                 1.9868
 IR Inten    --      1.2253                 1.9169                36.1904

                     37                     38                     39
                      A                      A                      A
 Frequencies --    997.7067              1007.2068              1067.0321
 Red. masses --      1.3159                 1.3329                 2.4941
 Frc consts  --      0.7717                 0.7967                 1.6731
 IR Inten    --      0.3268                 0.6832                94.9027

                     40                     41                     42
                      A                      A                      A
 Frequencies --   1069.2053              1096.0404              1096.2451
 Red. masses --      4.1592                 1.4042                 1.3933
 Frc consts  --      2.8015                 0.9939                 0.9865
 IR Inten    --     31.2937                17.7232                 6.5807

                     43                     44                     45
                      A                      A                      A
 Frequencies --   1125.4492              1127.9422              1144.5302
 Red. masses --      1.2853                 1.3030                 1.8184
 Frc consts  --      0.9592                 0.9767                 1.4034
 IR Inten    --      9.9352                 3.9927                 0.1200

                     46                     47                     48
                      A                      A                      A
 Frequencies --   1150.2281              1178.9714              1181.8218
 Red. masses --      1.7192                 1.4620                 1.4469
 Frc consts  --      1.3401                 1.1973                 1.1906
 IR Inten    --      3.6076                 2.1681                35.9281

                     49                     50                     51
                      A                      A                      A
 Frequencies --   1190.2261              1208.8099              1228.1350
 Red. masses --      1.4210                 1.2667                 2.5372
 Frc consts  --      1.1861                 1.0905                 2.2548
 IR Inten    --      2.4259                 2.7431                14.8503

                     52                     53                     54
                      A                      A                      A
 Frequencies --   1243.6598              1254.5315              1275.1322
 Red. masses --      1.4606                 1.8023                 3.6990
 Frc consts  --      1.3310                 1.6713                 3.5436
 IR Inten    --      5.2876                12.3461                 7.0624

                     55                     56                     57
                      A                      A                      A
 Frequencies --   1276.0230              1360.6327              1375.1009
 Red. masses --      3.0889                 3.1079                 1.9509
 Frc consts  --      2.9633                 3.3899                 2.1735
 IR Inten    --     36.4378                 8.8296                33.9971

                     58                     59                     60
                      A                      A                      A
 Frequencies --   1401.5753              1404.3626              1442.2517
 Red. masses --      3.3393                 7.5972                 2.9925
 Frc consts  --      3.8649                 8.8280                 3.6675
 IR Inten    --     20.8599                15.6147                95.6704

                     61                     62                     63
                      A                      A                      A
 Frequencies --   1461.5671              1463.2156              1481.1176
 Red. masses --      1.1652                 1.2188                 1.4888
 Frc consts  --      1.4665                 1.5374                 1.9243
 IR Inten    --      0.3692                 7.8231                12.0779

                     64                     65                     66
                      A                      A                      A
 Frequencies --   1486.7901              1488.0810              1493.1096
 Red. masses --      1.3008                 1.1812                 1.0531
 Frc consts  --      1.6942                 1.5411                 1.3833
 IR Inten    --      1.8771                 4.9501                 9.8413

                     67                     68                     69
                      A                      A                      A
 Frequencies --   1495.3817              1503.3266              1508.3844
 Red. masses --      1.2871                 1.1093                 1.0589
 Frc consts  --      1.6958                 1.4771                 1.4194
 IR Inten    --      0.7622                 2.4534                34.3349

                     70                     71                     72
                      A                      A                      A
 Frequencies --   1509.4153              1514.0136              1523.5486
 Red. masses --      1.0922                 1.0550                 1.6756
 Frc consts  --      1.4662                 1.4248                 2.2915
 IR Inten    --     18.5622                 2.6014                20.1057

                     73                     74                     75
                      A                      A                      A
 Frequencies --   1536.0060              1539.7803              1580.9836
 Red. masses --      1.1641                 1.1250                 4.0898
 Frc consts  --      1.6182                 1.5715                 6.0229
 IR Inten    --     19.9333                39.3126                22.6580

                     76                     77                     78
                      A                      A                      A
 Frequencies --   1662.2089              1681.5087              1697.8141
 Red. masses --      6.1801                 5.5821                 6.2539
 Frc consts  --     10.0605                 9.2992                10.6214
 IR Inten    --    213.3011                 0.0434                14.5725

                     79                     80                     81
                      A                      A                      A
 Frequencies --   2971.1414              2971.4634              2983.4927
 Red. masses --      1.0584                 1.0583                 1.0593
 Frc consts  --      5.5050                 5.5057                 5.5555
 IR Inten    --    145.4859                12.3461               242.8902

                     82                     83                     84
                      A                      A                      A
 Frequencies --   2985.2049              3092.7054              3092.7985
 Red. masses --      1.0590                 1.0756                 1.0759
 Frc consts  --      5.5603                 6.0612                 6.0638
 IR Inten    --     42.5615                20.0754                38.2198

                     85                     86                     87
                      A                      A                      A
 Frequencies --   3100.0936              3100.3990              3146.3726
 Red. masses --      1.0832                 1.0834                 1.1034
 Frc consts  --      6.1336                 6.1357                 6.4358
 IR Inten    --     68.6213                16.7139                21.1545

                     88                     89                     90
                      A                      A                      A
 Frequencies --   3146.3793              3200.5184              3200.8119
 Red. masses --      1.1035                 1.0960                 1.0958
 Frc consts  --      6.4364                 6.6145                 6.6145
 IR Inten    --     16.1803                 5.9773                11.7602

                     91                     92                     93
                      A                      A                      A
 Frequencies --   3201.3526              3203.5740              3219.7100
 Red. masses --      1.0870                 1.0870                 1.0964
 Frc consts  --      6.5638                 6.5726                 6.6965
 IR Inten    --      2.9462                 0.3371                 9.3791

                     94                     95                     96
                      A                      A                      A
 Frequencies --   3222.1583              3246.8110              3246.8312
 Red. masses --      1.0958                 1.0922                 1.0920
 Frc consts  --      6.7032                 6.7838                 6.7827
 IR Inten    --     38.3365                15.1405                 1.8489

 - Thermochemistry -
 -------------------
 Temperature   298.150 Kelvin.  Pressure   1.00000 Atm.
 Atom     1 has atomic number  6 and mass  12.00000

 Molecular mass:   214.14700 amu.
 Principal axes and moments of inertia in atomic units:
                           1         2         3
     Eigenvalues --  2802.869182864.347065026.39878
           X            1.00000   0.00004  -0.00000
           Y           -0.00004   1.00000  -0.00128
           Z            0.00000   0.00128   1.00000
 This molecule is an asymmetric top.
 Rotational symmetry number  1.
 Warning -- assumption of classical behavior for rotation
           may cause significant error
 Rotational temperatures (Kelvin)      0.03090     0.03024     0.01723
 Rotational constants (GHZ):           0.64389     0.63007     0.35905
 Zero-point vibrational energy     779246.2 (Joules/Mol)
                                  186.24431 (Kcal/Mol)
 Warning -- explicit consideration of  24 degrees of freedom as
           vibrations may cause significant error
 Vibrational temperatures:     73.77   142.45   166.75   184.39   185.29
          (Kelvin)            221.64   258.08   310.85   363.21   395.00
                              448.58   461.46   470.74   487.30   526.52
                              546.51   571.66   658.93   700.76   709.65
                              784.80   785.92   793.59   802.95   932.40
                              961.75   990.77  1127.33  1129.54  1137.19
                             1152.88  1229.16  1297.75  1320.78  1331.05
                             1400.45  1435.48  1449.14  1535.22  1538.35
                             1576.96  1577.25  1619.27  1622.86  1646.72
                             1654.92  1696.27  1700.38  1712.47  1739.21
                             1767.01  1789.35  1804.99  1834.63  1835.91
                             1957.64  1978.46  2016.55  2020.56  2075.08
                             2102.87  2105.24  2131.00  2139.16  2141.01
                             2148.25  2151.52  2162.95  2170.23  2171.71
                             2178.33  2192.04  2209.97  2215.40  2274.68
                             2391.54  2419.31  2442.77  4274.80  4275.27
                             4292.58  4295.04  4449.71  4449.84  4460.34
                             4460.78  4526.92  4526.93  4604.83  4605.25
                             4606.03  4609.22  4632.44  4635.96  4671.43
                             4671.46

 Zero-point correction=                           0.296799 (Hartree/Particle)
 Thermal correction to Energy=                    0.311478
 Thermal correction to Enthalpy=                  0.312423
 Thermal correction to Gibbs Free Energy=         0.256328
 Sum of electronic and zero-point Energies=           -653.203429
 Sum of electronic and thermal Energies=              -653.188750
 Sum of electronic and thermal Enthalpies=            -653.187806
 Sum of electronic and thermal Free Energies=         -653.243900

                     E (Thermal)             CV                S
                      KCal/Mol        Cal/Mol-Kelvin    Cal/Mol-Kelvin
 Total                  195.456             58.371            118.061
 Electronic               0.000              0.000              0.000
 Translational            0.889              2.981             41.988
 Rotational               0.889              2.981             32.068
 Vibrational            193.678             52.410             44.006
 Vibration     1          0.596              1.977              4.768
 Vibration     2          0.604              1.950              3.474
 Vibration     3          0.608              1.936              3.168
 Vibration     4          0.611              1.925              2.974
 Vibration     5          0.611              1.924              2.964
 Vibration     6          0.620              1.898              2.622
 Vibration     7          0.629              1.868              2.335
 Vibration     8          0.645              1.817              1.992
 Vibration     9          0.664              1.759              1.713
 Vibration    10          0.677              1.720              1.567
 Vibration    11          0.700              1.651              1.353
 Vibration    12          0.706              1.634              1.306
 Vibration    13          0.711              1.621              1.274
 Vibration    14          0.719              1.598              1.218
 Vibration    15          0.739              1.542              1.097
 Vibration    16          0.750              1.513              1.040
 Vibration    17          0.764              1.476              0.973
 Vibration    18          0.816              1.343              0.772
 Vibration    19          0.843              1.279              0.691
 Vibration    20          0.849              1.265              0.675
 Vibration    21          0.901              1.150              0.554
 Vibration    22          0.901              1.148              0.552
 Vibration    23          0.907              1.136              0.541
 Vibration    24          0.914              1.122              0.528

 Optimization completed.
    -- Stationary point found.
 Normal termination of Gaussian 09 at Tue Dec 17 18:20:12 2024.
