 Gaussian 09, Revision E.01,
 Gaussian 09:  ES64L-G09RevE.01 30-Nov-2015

 --------------------------------------------------------
 # opt freq cam-b3lyp/6-31+g(d,p) empiricaldispersion=gd3
 --------------------------------------------------------

 ----------
 [No Title]
 ----------
 Symbolic Z-matrix:
 Charge =  1 Multiplicity = 1

 SCF Done:  E(RCAM-B3LYP) =  -653.905137109     A.U. after   15 cycles
 SCF Done:  E(RCAM-B3LYP) =  -653.905243532     A.U. after   12 cycles
 SCF Done:  E(RCAM-B3LYP) =  -653.905143495     A.U. after   12 cycles
 SCF Done:  E(RCAM-B3LYP) =  -653.905378527     A.U. after    8 cycles
 SCF Done:  E(RCAM-B3LYP) =  -653.905423011     A.U. after   11 cycles
 SCF Done:  E(RCAM-B3LYP) =  -653.905398046     A.U. after   11 cycles
 SCF Done:  E(RCAM-B3LYP) =  -653.905424371     A.U. after   11 cycles
 SCF Done:  E(RCAM-B3LYP) =  -653.905444057     A.U. after   11 cycles
 SCF Done:  E(RCAM-B3LYP) =  -653.905444979     A.U. after    9 cycles
 Optimization completed.
    -- Stationary point found.
 Normal termination of Gaussian 09 at Tue Dec 17 18:57:30 2024.

 ----------------------------------------------------------------------
 #N Geom=AllCheck Guess=TCheck SCRF=Check GenChk RCAM-B3LYP/6-31+G(d,p)
  Freq
 ----------------------------------------------------------------------

 Structure from the checkpoint file:  "camb3lypD3DMANyang.chk"
 ----------
 [No Title]
 ----------
 Charge =  1 Multiplicity = 1

                         Standard orientation:
 ---------------------------------------------------------------------
 Center     Atomic      Atomic             Coordinates (Angstroms)
 Number     Number       Type             X           Y           Z
 ---------------------------------------------------------------------
      1          6           0        0.740864   -2.432705    0.000129
      2          6           0        2.150231   -2.399736    0.000099
      3          6           0        2.798757   -1.195015    0.000032
      4          6           0        2.080345    0.027764   -0.000015
      5          6           0        0.652723    0.014045    0.000017
      6          6           0        0.025291   -1.266981    0.000094
      7          6           0        2.769952    1.266450   -0.000104
      8          6           0        2.085466    2.450473   -0.000168
      9          6           0        0.675173    2.445522   -0.000152
     10          6           0       -0.030397    1.270302   -0.000063
     11          7           0       -1.447489   -1.316577    0.000126
     12          7           0       -1.487290    1.277630   -0.000057
     13          6           0       -2.011047   -1.925246   -1.234999
     14          6           0       -2.010990   -1.925331    1.235236
     15          6           0       -2.053713    1.882724    1.219585
     16          6           0       -2.053745    1.882543   -1.219773
     17          1           0        0.231232   -3.390708    0.000182
     18          1           0        2.707486   -3.329278    0.000130
     19          1           0        3.883254   -1.157872    0.000004
     20          1           0        3.854964    1.257357   -0.000125
     21          1           0        2.617348    3.395146   -0.000238
     22          1           0        0.142597    3.390870   -0.000207
     23          1           0       -1.700075   -0.233108    0.000176
     24          1           0       -3.095091   -1.802999   -1.224636
     25          1           0       -1.586629   -1.419164   -2.101594
     26          1           0       -1.763078   -2.986235   -1.277308
     27          1           0       -3.095034   -1.803078    1.224935
     28          1           0       -1.586529   -1.419313    2.101847
     29          1           0       -1.763024   -2.986324    1.277462
     30          1           0       -1.621943    1.403582    2.100015
     31          1           0       -1.850805    2.958052    1.274564
     32          1           0       -3.135902    1.732953    1.223831
     33          1           0       -1.621985    1.403278   -2.100143
     34          1           0       -3.135931    1.732752   -1.223976
     35          1           0       -1.850860    2.957866   -1.274913
 ---------------------------------------------------------------------

 SCF Done:  E(RCAM-B3LYP) =  -653.905444979     A.U. after    1 cycles

 The electronic state is 1-A.
 Alpha  occ. eigenvalues --  -14.64452 -14.57862 -10.45328 -10.44936 -10.44935
 Alpha  occ. eigenvalues --  -10.43847 -10.42352 -10.42023 -10.42022 -10.41313
 Alpha  occ. eigenvalues --  -10.41102 -10.40104 -10.39922 -10.39852 -10.39412
 Alpha  occ. eigenvalues --  -10.39339  -1.22976  -1.17034  -1.09528  -1.04240
 Alpha  occ. eigenvalues --   -0.99610  -0.96685  -0.96571  -0.94506  -0.93210
 Alpha  occ. eigenvalues --   -0.90497  -0.87037  -0.84431  -0.82314  -0.79487
 Alpha  occ. eigenvalues --   -0.75659  -0.73810  -0.72952  -0.70728  -0.70403
 Alpha  occ. eigenvalues --   -0.69341  -0.66828  -0.66675  -0.66183  -0.64139
 Alpha  occ. eigenvalues --   -0.63407  -0.63239  -0.61909  -0.61445  -0.60782
 Alpha  occ. eigenvalues --   -0.60365  -0.59311  -0.59268  -0.58672  -0.57524
 Alpha  occ. eigenvalues --   -0.57169  -0.54456  -0.53836  -0.52817  -0.48094
 Alpha  occ. eigenvalues --   -0.45032  -0.43465  -0.40346
 Alpha virt. eigenvalues --   -0.14077  -0.10918  -0.09136  -0.07210  -0.06949
 Alpha virt. eigenvalues --   -0.06451  -0.06158  -0.05408  -0.04884  -0.04280
 Alpha virt. eigenvalues --   -0.04065  -0.03956  -0.02851  -0.02423  -0.02089

 Mulliken charges:
               1
     1  C    0.001172
     2  C   -0.217354
     3  C   -0.029362
     4  C   -0.420561
     5  C   -0.007950
     6  C   -0.182157
     7  C   -0.053820
     8  C   -0.209107
     9  C   -0.002987
    10  C   -0.191515
    11  N   -0.400691
    12  N   -0.457551
    13  C   -0.130669
    14  C   -0.130655
    15  C   -0.124249
    16  C   -0.124272
    17  H    0.151090
    18  H    0.170128
    19  H    0.165061
    20  H    0.162993
    21  H    0.168497
    22  H    0.151922
    23  H    0.485550
    24  H    0.192919
    25  H    0.199199
    26  H    0.197188
    27  H    0.192919
    28  H    0.199206
    29  H    0.197182
    30  H    0.173218
    31  H    0.177591
    32  H    0.173129
    33  H    0.173214
    34  H    0.173128
    35  H    0.177592
 Sum of Mulliken charges =   1.00000

 Dipole moment (field-independent basis, Debye):
    X=             -3.9960    Y=             -1.6801    Z=              0.0001  Tot=              4.3348
 Quadrupole moment (field-independent basis, Debye-Ang):
   XX=            -63.8535   YY=            -65.3247   ZZ=            -92.2065
   XY=              3.2174   XZ=             -0.0006   YZ=             -0.0018

  Exact polarizability: 190.886  -0.667 206.640  -0.001  -0.006 109.049
 Approx polarizability: 225.997  -0.492 263.270  -0.001  -0.007 137.770

                      1                      2                      3
                      A                      A                      A
 Frequencies --     29.6293                75.7328               132.5974
 Red. masses --      3.5021                 2.6393                 3.3078
 Frc consts  --      0.0018                 0.0089                 0.0343
 IR Inten    --      0.0784                 0.1115                 0.4539

                      4                      5                      6
                      A                      A                      A
 Frequencies --    139.8855               170.0016               182.5041
 Red. masses --      2.3455                 2.8564                 2.9952
 Frc consts  --      0.0270                 0.0486                 0.0588
 IR Inten    --      0.2910                18.1128                 3.6970

                      7                      8                      9
                      A                      A                      A
 Frequencies --    195.2594               227.6445               237.9492
 Red. masses --      3.4506                 1.1574                 1.4322
 Frc consts  --      0.0775                 0.0353                 0.0478
 IR Inten    --      0.3006                 0.1357                 1.0963

                     10                     11                     12
                      A                      A                      A
 Frequencies --    245.2254               262.2922               264.1575
 Red. masses --      1.1130                 1.6393                 1.3845
 Frc consts  --      0.0394                 0.0664                 0.0569
 IR Inten    --      0.0024                 3.4805                 0.3086

                     13                     14                     15
                      A                      A                      A
 Frequencies --    281.1586               328.7535               328.9958
 Red. masses --      2.2181                 2.7801                 3.3185
 Frc consts  --      0.1033                 0.1770                 0.2116
 IR Inten    --      0.0565                 2.2103                 0.1854

                     16                     17                     18
                      A                      A                      A
 Frequencies --    390.0560               440.5625               458.5622
 Red. masses --      3.6800                 3.2023                 2.9344
 Frc consts  --      0.3299                 0.3662                 0.3635
 IR Inten    --     13.1059                25.4434                 0.3034

                     19                     20                     21
                      A                      A                      A
 Frequencies --    487.4467               507.2527               540.2306
 Red. masses --      3.3022                 5.5182                 4.2946
 Frc consts  --      0.4623                 0.8366                 0.7385
 IR Inten    --      0.5083                18.7065                15.8269

                     22                     23                     24
                      A                      A                      A
 Frequencies --    545.4683               547.7977               581.7340
 Red. masses --      4.8112                 3.5308                 3.7962
 Frc consts  --      0.8434                 0.6243                 0.7569
 IR Inten    --      5.0778                 0.0185                 4.4146

                     25                     26                     27
                      A                      A                      A
 Frequencies --    657.2062               681.4205               688.6967
 Red. masses --      3.9868                 3.0161                 3.5948
 Frc consts  --      1.0146                 0.8251                 1.0046
 IR Inten    --      0.0691                 0.1573                67.1911

                     28                     29                     30
                      A                      A                      A
 Frequencies --    784.1050               798.4838               802.8496
 Red. masses --      4.7601                 2.0145                 1.2979
 Frc consts  --      1.7243                 0.7567                 0.4929
 IR Inten    --      1.2739                68.1142                 0.4370

                     31                     32                     33
                      A                      A                      A
 Frequencies --    803.0581               866.8459               901.1807
 Red. masses --      5.3162                 2.4125                 3.9646
 Frc consts  --      2.0200                 1.0681                 1.8970
 IR Inten    --      0.6249                26.4762                43.5252

                     34                     35                     36
                      A                      A                      A
 Frequencies --    936.4279               952.4070               969.7520
 Red. masses --      3.6379                 1.3879                 1.4499
 Frc consts  --      1.8795                 0.7417                 0.8033
 IR Inten    --     33.2964                 0.1861                 1.6184

                     37                     38                     39
                      A                      A                      A
 Frequencies --   1024.1961              1033.2809              1035.2099
 Red. masses --      1.3524                 3.2392                 1.3738
 Frc consts  --      0.8359                 2.0376                 0.8674
 IR Inten    --      0.0059                34.3316                 0.0120

                     40                     41                     42
                      A                      A                      A
 Frequencies --   1041.3715              1059.7626              1060.1799
 Red. masses --      1.8900                 3.7104                 1.6776
 Frc consts  --      1.2076                 2.4552                 1.1109
 IR Inten    --     13.8663                14.2868                15.4879

                     43                     44                     45
                      A                      A                      A
 Frequencies --   1102.9224              1120.5160              1125.5562
 Red. masses --      1.2104                 2.1274                 1.2439
 Frc consts  --      0.8675                 1.5738                 0.9285
 IR Inten    --      0.5608                 9.8595                 1.4576

                     46                     47                     48
                      A                      A                      A
 Frequencies --   1128.5360              1194.4137              1204.1274
 Red. masses --      1.8128                 1.3075                 1.4318
 Frc consts  --      1.3603                 1.0990                 1.2232
 IR Inten    --      2.8567                 0.1844                 3.9244

                     49                     50                     51
                      A                      A                      A
 Frequencies --   1205.0448              1212.7770              1226.4937
 Red. masses --      2.2860                 1.6245                 1.3295
 Frc consts  --      1.9558                 1.4077                 1.1783
 IR Inten    --      6.4673                 9.1029                29.0143

                     52                     53                     54
                      A                      A                      A
 Frequencies --   1227.0943              1243.8966              1252.0893
 Red. masses --      3.0845                 1.5075                 1.8071
 Frc consts  --      2.7365                 1.3743                 1.6692
 IR Inten    --     12.4569                28.3759                 6.6653

                     55                     56                     57
                      A                      A                      A
 Frequencies --   1258.4750              1299.4958              1324.8704
 Red. masses --      1.7176                 2.1761                 2.4262
 Frc consts  --      1.6027                 2.1651                 2.5091
 IR Inten    --     41.4572                 0.9801                17.8658

                     58                     59                     60
                      A                      A                      A
 Frequencies --   1397.9417              1401.2916              1427.5830
 Red. masses --      3.5192                 2.2813                 5.2550
 Frc consts  --      4.0520                 2.6393                 6.3099
 IR Inten    --      2.1354               112.5214                10.2795

                     61                     62                     63
                      A                      A                      A
 Frequencies --   1458.7850              1461.3282              1462.9177
 Red. masses --      1.1460                 1.3816                 1.1449
 Frc consts  --      1.4369                 1.7384                 1.4436
 IR Inten    --      0.5726                76.1350                10.2524

                     64                     65                     66
                      A                      A                      A
 Frequencies --   1489.6926              1489.9688              1495.2674
 Red. masses --      1.5224                 1.0416                 1.2891
 Frc consts  --      1.9906                 1.3625                 1.6982
 IR Inten    --      0.4244                 0.0405                 2.9950

                     67                     68                     69
                      A                      A                      A
 Frequencies --   1499.1580              1503.9248              1507.5096
 Red. masses --      1.0480                 1.0436                 1.1287
 Frc consts  --      1.3877                 1.3906                 1.5113
 IR Inten    --      0.7424                 5.3498                 5.4124

                     70                     71                     72
                      A                      A                      A
 Frequencies --   1513.0878              1520.1675              1521.4183
 Red. masses --      1.0453                 1.0522                 1.1763
 Frc consts  --      1.4099                 1.4326                 1.6042
 IR Inten    --     14.0951                 3.4822                11.3430

                     73                     74                     75
                      A                      A                      A
 Frequencies --   1527.7600              1532.4277              1564.6228
 Red. masses --      1.7148                 1.1624                 2.5833
 Frc consts  --      2.3582                 1.6083                 3.7260
 IR Inten    --     12.5664                25.9686               201.9995

                     76                     77                     78
                      A                      A                      A
 Frequencies --   1616.3755              1665.8247              1689.2734
 Red. masses --      1.7388                 6.7596                 1.0871
 Frc consts  --      2.6766                11.0517                 1.8277
 IR Inten    --    290.8182                 2.4771                 5.2703

                     79                     80                     81
                      A                      A                      A
 Frequencies --   1700.3637              1721.4122              2094.1801
 Red. masses --      4.5124                 6.2338                 1.1198
 Frc consts  --      7.6866                10.8836                 2.8935
 IR Inten    --     48.8300                50.4517              1150.6184

                     82                     83                     84
                      A                      A                      A
 Frequencies --   3060.5065              3064.0379              3096.6060
 Red. masses --      1.0358                 1.0371                 1.0318
 Frc consts  --      5.7164                 5.7365                 5.8291
 IR Inten    --     17.4791                17.7745                 4.0476

                     85                     86                     87
                      A                      A                      A
 Frequencies --   3100.1626              3140.1206              3140.3800
 Red. masses --      1.0325                 1.1023                 1.1009
 Frc consts  --      5.8469                 6.4040                 6.3965
 IR Inten    --      4.5214                 1.1704                19.1721

                     88                     89                     90
                      A                      A                      A
 Frequencies --   3169.7237              3171.8308              3190.5963
 Red. masses --      1.1061                 1.1066                 1.1084
 Frc consts  --      6.5478                 6.5594                 6.6478
 IR Inten    --      3.7411                16.6030                 0.0114

                     91                     92                     93
                      A                      A                      A
 Frequencies --   3192.7942              3201.7267              3202.7460
 Red. masses --      1.1076                 1.1077                 1.1084
 Frc consts  --      6.6522                 6.6904                 6.6989
 IR Inten    --      4.7919                 0.4939                 2.4319

                     94                     95                     96
                      A                      A                      A
 Frequencies --   3220.2638              3220.8594              3224.8688
 Red. masses --      1.0894                 1.0897                 1.0925
 Frc consts  --      6.6560                 6.6606                 6.6944
 IR Inten    --      0.3127                 3.7619                 0.0457

                     97                     98                     99
                      A                      A                      A
 Frequencies --   3227.0924              3243.9809              3246.6103
 Red. masses --      1.0921                 1.0982                 1.0979
 Frc consts  --      6.7011                 6.8090                 6.8182
 IR Inten    --      3.2475                 0.7682                 0.3001

 - Thermochemistry -
 -------------------
 Temperature   298.150 Kelvin.  Pressure   1.00000 Atm.
 Atom     1 has atomic number  6 and mass  12.00000

 Molecular mass:   215.15482 amu.
 Principal axes and moments of inertia in atomic units:
                           1         2         3
     Eigenvalues --  2814.167202976.014535056.57255
           X            0.99999   0.00356   0.00001
           Y           -0.00356   0.99999   0.00006
           Z           -0.00001  -0.00006   1.00000
 This molecule is an asymmetric top.
 Rotational symmetry number  1.
 Warning -- assumption of classical behavior for rotation
           may cause significant error
 Rotational temperatures (Kelvin)      0.03078     0.02910     0.01713
 Rotational constants (GHZ):           0.64131     0.60643     0.35691
 Zero-point vibrational energy     814661.9 (Joules/Mol)
                                  194.70886 (Kcal/Mol)
 Warning -- explicit consideration of  24 degrees of freedom as
           vibrations may cause significant error
 Vibrational temperatures:     42.63   108.96   190.78   201.26   244.59
          (Kelvin)            262.58   280.93   327.53   342.36   352.82
                              377.38   380.06   404.52   473.00   473.35
                              561.20   633.87   659.77   701.33   729.82
                              777.27   784.81   788.16   836.98   945.57
                              980.41   990.88  1128.15  1148.84  1155.12
                             1155.42  1247.20  1296.60  1347.31  1370.30
                             1395.26  1473.59  1486.66  1489.43  1498.30
                             1524.76  1525.36  1586.86  1612.17  1619.42
                             1623.71  1718.49  1732.47  1733.79  1744.91
                             1764.65  1765.51  1789.69  1801.48  1810.66
                             1869.68  1906.19  2011.32  2016.14  2053.97
                             2098.86  2102.52  2104.81  2143.33  2143.73
                             2151.35  2156.95  2163.81  2168.97  2176.99
                             2187.18  2188.98  2198.10  2204.82  2251.14
                             2325.60  2396.75  2430.48  2446.44  2476.73
                             3013.05  4403.38  4408.46  4455.32  4460.44
                             4517.93  4518.30  4560.52  4563.55  4590.55
                             4593.71  4606.56  4608.03  4633.24  4634.09
                             4639.86  4643.06  4667.36  4671.14

 Zero-point correction=                           0.310288 (Hartree/Particle)
 Thermal correction to Energy=                    0.325078
 Thermal correction to Enthalpy=                  0.326022
 Thermal correction to Gibbs Free Energy=         0.269326
 Sum of electronic and zero-point Energies=           -653.595157
 Sum of electronic and thermal Energies=              -653.580367
 Sum of electronic and thermal Enthalpies=            -653.579423
 Sum of electronic and thermal Free Energies=         -653.636119

                     E (Thermal)             CV                S
                      KCal/Mol        Cal/Mol-Kelvin    Cal/Mol-Kelvin
 Total                  203.990             58.637            119.329
 Electronic               0.000              0.000              0.000
 Translational            0.889              2.981             42.002
 Rotational               0.889              2.981             32.116
 Vibrational            202.212             52.676             45.211
 Vibration     1          0.593              1.984              5.854
 Vibration     2          0.599              1.965              3.999
 Vibration     3          0.613              1.921              2.908
 Vibration     4          0.615              1.913              2.805
 Vibration     5          0.625              1.879              2.435
 Vibration     6          0.630              1.864              2.303
 Vibration     7          0.636              1.846              2.177
 Vibration     8          0.651              1.799              1.897
 Vibration     9          0.656              1.783              1.818
 Vibration    10          0.660              1.771              1.765
 Vibration    11          0.670              1.742              1.646
 Vibration    12          0.671              1.739              1.634
 Vibration    13          0.681              1.708              1.527
 Vibration    14          0.712              1.618              1.266
 Vibration    15          0.712              1.618              1.265
 Vibration    16          0.758              1.491              1.000
 Vibration    17          0.800              1.382              0.825
 Vibration    18          0.817              1.342              0.770
 Vibration    19          0.843              1.278              0.690
 Vibration    20          0.862              1.234              0.640
 Vibration    21          0.895              1.161              0.565
 Vibration    22          0.901              1.150              0.554
 Vibration    23          0.903              1.145              0.549
 Vibration    24          0.938              1.071              0.482

 Optimization completed.
    -- Stationary point found.
 Normal termination of Gaussian 09 at Tue Dec 17 19:04:19 2024.
