 Gaussian 09, Revision E.01,
 Gaussian 09:  ES64L-G09RevE.01 30-Nov-2015

 -----------------------------------------------------
 # opt freq pbepbe/6-31+g(d,p) empiricaldispersion=gd3
 -----------------------------------------------------

 ----------
 [No Title]
 ----------
 Symbolic Z-matrix:
 Charge =  0 Multiplicity = 1

 SCF Done:  E(RPBE-PBE) =  -653.020062992     A.U. after   16 cycles
 SCF Done:  E(RPBE-PBE) =  -653.021443836     A.U. after   13 cycles
 SCF Done:  E(RPBE-PBE) =  -653.018036354     A.U. after   14 cycles
 SCF Done:  E(RPBE-PBE) =  -653.021768703     A.U. after   12 cycles
 SCF Done:  E(RPBE-PBE) =  -653.021891813     A.U. after   13 cycles
 SCF Done:  E(RPBE-PBE) =  -653.021907126     A.U. after   12 cycles
 SCF Done:  E(RPBE-PBE) =  -653.021919637     A.U. after   11 cycles
 SCF Done:  E(RPBE-PBE) =  -653.021933035     A.U. after   12 cycles
 SCF Done:  E(RPBE-PBE) =  -653.021934558     A.U. after   12 cycles
 SCF Done:  E(RPBE-PBE) =  -653.021937204     A.U. after   12 cycles
 SCF Done:  E(RPBE-PBE) =  -653.021938114     A.U. after   10 cycles
 SCF Done:  E(RPBE-PBE) =  -653.021938245     A.U. after   10 cycles
 Optimization completed.
    -- Stationary point found.
 Normal termination of Gaussian 09 at Tue Dec 17 18:25:45 2024.

 ----------------------------------------------------------------------
 #N Geom=AllCheck Guess=TCheck SCRF=Check GenChk RPBEPBE/6-31+G(d,p) Fr
 eq
 ----------------------------------------------------------------------

 Structure from the checkpoint file:  "pbeD3DMAN.chk"
 ----------
 [No Title]
 ----------
 Charge =  0 Multiplicity = 1

                         Standard orientation:
 ---------------------------------------------------------------------
 Center     Atomic      Atomic             Coordinates (Angstroms)
 Number     Number       Type             X           Y           Z
 ---------------------------------------------------------------------
      1          6           0        0.685068   -2.450010   -0.236607
      2          6           0        2.089618   -2.405424   -0.392014
      3          6           0        2.767749   -1.212746   -0.219668
      4          6           0        2.050204   -0.000103   -0.000000
      5          6           0        0.602070   -0.000031    0.000006
      6          6           0       -0.065109   -1.293415    0.019568
      7          6           0        2.767870    1.212470    0.219661
      8          6           0        2.089858    2.405215    0.392008
      9          6           0        0.685312    2.449940    0.236610
     10          6           0       -0.064981    1.293419   -0.019558
     11          7           0       -1.444889   -1.386506    0.301304
     12          7           0       -1.444749    1.386653   -0.301299
     13          6           0       -1.906269   -0.831319    1.574613
     14          6           0       -2.139736   -2.614845   -0.044792
     15          6           0       -2.139451    2.615081    0.044767
     16          6           0       -1.906195    0.831488   -1.574593
     17          1           0        0.190426   -3.423633   -0.243753
     18          1           0        2.637411   -3.334053   -0.581309
     19          1           0        3.861272   -1.176402   -0.252216
     20          1           0        3.861390    1.176018    0.252202
     21          1           0        2.637742    3.333791    0.581297
     22          1           0        0.190763    3.423611    0.243754
     23          1           0       -1.280577    0.017311    1.875543
     24          1           0       -2.946997   -0.475647    1.478618
     25          1           0       -1.864825   -1.598949    2.379152
     26          1           0       -1.902479   -2.909624   -1.079445
     27          1           0       -1.903835   -3.469491    0.630908
     28          1           0       -3.225652   -2.431586    0.020902
     29          1           0       -1.902163    2.909853    1.079416
     30          1           0       -1.903448    3.469687   -0.630948
     31          1           0       -3.225387    2.431944   -0.020928
     32          1           0       -1.280598   -0.017220   -1.875502
     33          1           0       -2.946963    0.475933   -1.478592
     34          1           0       -1.864664    1.599095   -2.379149
 ---------------------------------------------------------------------

 SCF Done:  E(RPBE-PBE) =  -653.021938245     A.U. after    2 cycles

 The electronic state is 1-A.
 Alpha  occ. eigenvalues --  -14.02335 -14.02335  -9.94096  -9.94096  -9.92782
 Alpha  occ. eigenvalues --   -9.92782  -9.92182  -9.92181  -9.91379  -9.91081
 Alpha  occ. eigenvalues --   -9.90150  -9.90150  -9.89727  -9.89726  -9.89507
 Alpha  occ. eigenvalues --   -9.89507  -0.86874  -0.85426  -0.77761  -0.73366
 Alpha  occ. eigenvalues --   -0.69038  -0.66881  -0.65309  -0.64472  -0.64168
 Alpha  occ. eigenvalues --   -0.58974  -0.58755  -0.54545  -0.53599  -0.50070
 Alpha  occ. eigenvalues --   -0.46539  -0.45680  -0.44616  -0.42876  -0.42053
 Alpha  occ. eigenvalues --   -0.41605  -0.40920  -0.40138  -0.39287  -0.37349
 Alpha  occ. eigenvalues --   -0.35985  -0.35749  -0.35087  -0.34826  -0.34684
 Alpha  occ. eigenvalues --   -0.33642  -0.33447  -0.32795  -0.32735  -0.32151
 Alpha  occ. eigenvalues --   -0.29858  -0.28897  -0.28649  -0.25394  -0.22404
 Alpha  occ. eigenvalues --   -0.21485  -0.16837  -0.16015
 Alpha virt. eigenvalues --   -0.06026  -0.04110  -0.01679  -0.00648  -0.00040
 Alpha virt. eigenvalues --    0.00159   0.01290   0.01545   0.01814   0.02171
 Alpha virt. eigenvalues --    0.03213   0.03713   0.03782   0.04040   0.04416

 Mulliken charges:
               1
     1  C   -0.382746
     2  C   -0.412380
     3  C   -0.100144
     4  C   -0.195129
     5  C   -0.048344
     6  C    0.120760
     7  C   -0.100151
     8  C   -0.412384
     9  C   -0.382751
    10  C    0.120760
    11  N    0.093225
    12  N    0.093237
    13  C   -0.287435
    14  C   -0.313599
    15  C   -0.313600
    16  C   -0.287441
    17  H    0.129683
    18  H    0.138052
    19  H    0.135752
    20  H    0.135752
    21  H    0.138052
    22  H    0.129683
    23  H    0.186909
    24  H    0.160680
    25  H    0.151340
    26  H    0.175320
    27  H    0.162294
    28  H    0.164031
    29  H    0.175320
    30  H    0.162295
    31  H    0.164030
    32  H    0.186909
    33  H    0.160680
    34  H    0.151340
 Sum of Mulliken charges =  -0.00000

 Dipole moment (field-independent basis, Debye):
    X=             -2.1668    Y=              0.0001    Z=             -0.0000  Tot=              2.1668
 Quadrupole moment (field-independent basis, Debye-Ang):
   XX=            -91.0221   YY=            -90.9393   ZZ=           -101.8532
   XY=             -0.0000   XZ=              0.0001   YZ=              1.6882

  Exact polarizability: 237.496   0.000 238.756   0.000   5.997 130.063
 Approx polarizability: 482.871  -0.000 479.838   0.001  31.031 223.879

                      1                      2                      3
                      A                      A                      A
 Frequencies --     57.8275                61.1427                77.1195
 Red. masses --      3.6548                 1.6662                 1.8723
 Frc consts  --      0.0072                 0.0037                 0.0066
 IR Inten    --      1.8316                 4.1352                 0.1370

                      4                      5                      6
                      A                      A                      A
 Frequencies --    121.2086               121.3868               138.1780
 Red. masses --      2.8431                 2.9925                 2.7569
 Frc consts  --      0.0246                 0.0260                 0.0310
 IR Inten    --      1.3540                 0.3866                 0.2025

                      7                      8                      9
                      A                      A                      A
 Frequencies --    165.7956               204.9381               239.8076
 Red. masses --      2.2616                 2.3256                 1.7285
 Frc consts  --      0.0366                 0.0575                 0.0586
 IR Inten    --      1.0891                 0.0080                 0.9970

                     10                     11                     12
                      A                      A                      A
 Frequencies --    267.4081               294.3502               307.2463
 Red. masses --      1.7384                 1.6057                 2.2667
 Frc consts  --      0.0732                 0.0820                 0.1261
 IR Inten    --      3.8473                 4.1875                 4.5361

                     13                     14                     15
                      A                      A                      A
 Frequencies --    307.3818               327.2821               349.0355
 Red. masses --      1.7318                 1.8608                 2.3912
 Frc consts  --      0.0964                 0.1174                 0.1716
 IR Inten    --      2.0126                 0.3144                 1.8174

                     16                     17                     18
                      A                      A                      A
 Frequencies --    351.8131               379.4571               439.9260
 Red. masses --      3.4152                 2.7783                 3.0033
 Frc consts  --      0.2491                 0.2357                 0.3425
 IR Inten    --      4.3198                 2.5487                 1.0676

                     19                     20                     21
                      A                      A                      A
 Frequencies --    464.2304               467.3241               514.4020
 Red. masses --      4.4517                 3.5446                 3.8055
 Frc consts  --      0.5653                 0.4561                 0.5933
 IR Inten    --      6.1055                 2.7973                 1.9782

                     22                     23                     24
                      A                      A                      A
 Frequencies --    518.5580               529.1910               531.6244
 Red. masses --      3.9510                 4.0632                 5.7749
 Frc consts  --      0.6260                 0.6704                 0.9616
 IR Inten    --      4.5867                 0.1455                 1.5563

                     25                     26                     27
                      A                      A                      A
 Frequencies --    617.3858               628.2065               648.6286
 Red. masses --      4.0713                 3.9527                 3.1444
 Frc consts  --      0.9143                 0.9191                 0.7794
 IR Inten    --      1.0201                 8.1227                 7.9975

                     28                     29                     30
                      A                      A                      A
 Frequencies --    732.3930               736.7331               751.4154
 Red. masses --      1.3381                 1.8181                 5.2058
 Frc consts  --      0.4229                 0.5814                 1.7318
 IR Inten    --      0.3672                61.9599                 0.2271

                     31                     32                     33
                      A                      A                      A
 Frequencies --    768.4213               786.9365               827.4645
 Red. masses --      5.1823                 2.8417                 1.4335
 Frc consts  --      1.8029                 1.0368                 0.5783
 IR Inten    --      2.3860                46.9158                 0.7351

                     34                     35                     36
                      A                      A                      A
 Frequencies --    846.5397               889.1810               921.5148
 Red. masses --      1.5147                 4.3265                 1.2780
 Frc consts  --      0.6396                 2.0154                 0.6394
 IR Inten    --      4.0478                 2.8277                 0.8247

                     37                     38                     39
                      A                      A                      A
 Frequencies --    930.4278               934.9836              1027.1251
 Red. masses --      1.3295                 3.4188                 2.4969
 Frc consts  --      0.6781                 1.7609                 1.5520
 IR Inten    --      2.0927                28.5620                82.6405

                     40                     41                     42
                      A                      A                      A
 Frequencies --   1032.1712              1052.4430              1052.7677
 Red. masses --      3.9466                 1.3824                 1.3863
 Frc consts  --      2.4773                 0.9022                 0.9053
 IR Inten    --     28.2671                10.6032                15.3273

                     43                     44                     45
                      A                      A                      A
 Frequencies --   1076.9409              1079.8209              1099.3353
 Red. masses --      1.2855                 1.2930                 1.8320
 Frc consts  --      0.8784                 0.8883                 1.3045
 IR Inten    --     10.0794                 5.2648                 0.0754

                     46                     47                     48
                      A                      A                      A
 Frequencies --   1104.2008              1118.4288              1120.5702
 Red. masses --      1.6222                 1.4532                 1.4427
 Frc consts  --      1.1654                 1.0710                 1.0674
 IR Inten    --      3.4211                 2.4150                55.4897

                     49                     50                     51
                      A                      A                      A
 Frequencies --   1152.5535              1156.9831              1186.3483
 Red. masses --      1.2724                 1.2660                 1.4562
 Frc consts  --      0.9959                 0.9984                 1.2075
 IR Inten    --      0.8680                 2.0443                12.8923

                     52                     53                     54
                      A                      A                      A
 Frequencies --   1197.2523              1199.2196              1217.0336
 Red. masses --      1.8174                 3.8529                 3.6473
 Frc consts  --      1.5348                 3.2647                 3.1829
 IR Inten    --     11.4713                26.0673                 8.7216

                     55                     56                     57
                      A                      A                      A
 Frequencies --   1222.2949              1316.9536              1322.0007
 Red. masses --      2.2673                 1.9530                 3.2099
 Frc consts  --      1.9958                 1.9956                 3.3053
 IR Inten    --     15.6765                25.6019                27.8974

                     58                     59                     60
                      A                      A                      A
 Frequencies --   1357.6117              1361.1945              1380.4803
 Red. masses --      6.4266                 4.6993                 3.2005
 Frc consts  --      6.9788                 5.1300                 3.5936
 IR Inten    --     26.6564                 6.5156                65.5966

                     61                     62                     63
                      A                      A                      A
 Frequencies --   1396.6091              1398.4934              1413.8605
 Red. masses --      1.1498                 1.1861                 1.6032
 Frc consts  --      1.3214                 1.3668                 1.8883
 IR Inten    --      0.6371                 3.6337                19.9717

                     64                     65                     66
                      A                      A                      A
 Frequencies --   1418.8151              1425.9527              1429.4048
 Red. masses --      1.3931                 1.0693                 1.0727
 Frc consts  --      1.6523                 1.2810                 1.2913
 IR Inten    --      3.9315                 3.0357                 5.2928

                     67                     68                     69
                      A                      A                      A
 Frequencies --   1431.9830              1440.5240              1444.2693
 Red. masses --      1.4004                 1.1010                 1.0509
 Frc consts  --      1.6919                 1.3462                 1.2916
 IR Inten    --      3.7166                 8.5444                30.2249

                     70                     71                     72
                      A                      A                      A
 Frequencies --   1446.5029              1452.1328              1458.0607
 Red. masses --      1.0979                 1.0544                 1.5189
 Frc consts  --      1.3534                 1.3099                 1.9026
 IR Inten    --     19.4771                 4.4671                17.6957

                     73                     74                     75
                      A                      A                      A
 Frequencies --   1477.0006              1480.5144              1514.1288
 Red. masses --      1.2046                 1.1608                 4.2109
 Frc consts  --      1.5483                 1.4991                 5.6879
 IR Inten    --     21.9764                39.3550                38.7010

                     76                     77                     78
                      A                      A                      A
 Frequencies --   1575.4952              1592.1811              1601.3274
 Red. masses --      5.6084                 6.0501                 6.1999
 Frc consts  --      8.2021                 9.0364                 9.3669
 IR Inten    --    208.4977                 7.7740                12.7309

                     79                     80                     81
                      A                      A                      A
 Frequencies --   2868.4104              2868.9758              2889.0710
 Red. masses --      1.0592                 1.0590                 1.0581
 Frc consts  --      5.1345                 5.1357                 5.2037
 IR Inten    --    212.0371                28.6433               260.8026

                     82                     83                     84
                      A                      A                      A
 Frequencies --   2890.9875              2999.9546              3000.8880
 Red. masses --      1.0580                 1.0757                 1.0809
 Frc consts  --      5.2099                 5.7039                 5.7351
 IR Inten    --     68.2519                16.7456                95.8415

                     85                     86                     87
                      A                      A                      A
 Frequencies --   3001.6748              3003.3037              3058.6685
 Red. masses --      1.0755                 1.0804                 1.1021
 Frc consts  --      5.7092                 5.7414                 6.0751
 IR Inten    --     17.4243                22.4466                12.7004

                     88                     89                     90
                      A                      A                      A
 Frequencies --   3058.6959              3110.0349              3110.9445
 Red. masses --      1.1020                 1.0852                 1.0887
 Frc consts  --      6.0746                 6.1844                 6.2080
 IR Inten    --     21.0238                 5.8442                 0.7613

                     91                     92                     93
                      A                      A                      A
 Frequencies --   3111.2623              3111.4116              3127.1785
 Red. masses --      1.0911                 1.0945                 1.0945
 Frc consts  --      6.2230                 6.2431                 6.3062
 IR Inten    --      3.7594                 8.1055                 9.4530

                     94                     95                     96
                      A                      A                      A
 Frequencies --   3128.9193              3148.3436              3148.4934
 Red. masses --      1.0937                 1.0917                 1.0916
 Frc consts  --      6.3085                 6.3757                 6.3753
 IR Inten    --     48.1940                23.2329                 0.5620

 - Thermochemistry -
 -------------------
 Temperature   298.150 Kelvin.  Pressure   1.00000 Atm.
 Atom     1 has atomic number  6 and mass  12.00000

 Molecular mass:   214.14700 amu.
 Principal axes and moments of inertia in atomic units:
                           1         2         3
     Eigenvalues --  2842.062152901.220545062.77960
           X            1.00000   0.00001   0.00000
           Y           -0.00001   1.00000  -0.00165
           Z           -0.00000   0.00165   1.00000
 This molecule is an asymmetric top.
 Rotational symmetry number  1.
 Warning -- assumption of classical behavior for rotation
           may cause significant error
 Rotational temperatures (Kelvin)      0.03048     0.02985     0.01711
 Rotational constants (GHZ):           0.63501     0.62206     0.35647
 Zero-point vibrational energy     748414.1 (Joules/Mol)
                                  178.87527 (Kcal/Mol)
 Warning -- explicit consideration of  25 degrees of freedom as
           vibrations may cause significant error
 Vibrational temperatures:     83.20    87.97   110.96   174.39   174.65
          (Kelvin)            198.81   238.54   294.86   345.03   384.74
                              423.50   442.06   442.25   470.89   502.18
                              506.18   545.95   632.95   667.92   672.37
                              740.11   746.09   761.39   764.89   888.28
                              903.85   933.23  1053.75  1059.99  1081.12
                             1105.59  1132.22  1190.54  1217.98  1279.33
                             1325.85  1338.68  1345.23  1477.80  1485.06
                             1514.23  1514.70  1549.48  1553.62  1581.70
                             1588.70  1609.17  1612.25  1658.27  1664.64
                             1706.89  1722.58  1725.41  1751.04  1758.61
                             1894.80  1902.06  1953.30  1958.45  1986.20
                             2009.41  2012.12  2034.23  2041.36  2051.63
                             2056.59  2060.30  2072.59  2077.98  2081.19
                             2089.29  2097.82  2125.07  2130.13  2178.49
                             2266.78  2290.79  2303.95  4127.00  4127.81
                             4156.72  4159.48  4316.26  4317.60  4318.74
                             4321.08  4400.74  4400.78  4474.64  4475.95
                             4476.41  4476.62  4499.31  4501.81  4529.76
                             4529.97

 Zero-point correction=                           0.285056 (Hartree/Particle)
 Thermal correction to Energy=                    0.300557
 Thermal correction to Enthalpy=                  0.301501
 Thermal correction to Gibbs Free Energy=         0.243425
 Sum of electronic and zero-point Energies=           -652.736882
 Sum of electronic and thermal Energies=              -652.721381
 Sum of electronic and thermal Enthalpies=            -652.720437
 Sum of electronic and thermal Free Energies=         -652.778513

                     E (Thermal)             CV                S
                      KCal/Mol        Cal/Mol-Kelvin    Cal/Mol-Kelvin
 Total                  188.603             61.305            122.233
 Electronic               0.000              0.000              0.000
 Translational            0.889              2.981             41.988
 Rotational               0.889              2.981             32.101
 Vibrational            186.825             55.343             48.143
 Vibration     1          0.596              1.974              4.530
 Vibration     2          0.597              1.973              4.420
 Vibration     3          0.599              1.964              3.963
 Vibration     4          0.609              1.932              3.081
 Vibration     5          0.609              1.931              3.078
 Vibration     6          0.614              1.915              2.829
 Vibration     7          0.624              1.885              2.483
 Vibration     8          0.640              1.833              2.088
 Vibration     9          0.657              1.780              1.804
 Vibration    10          0.673              1.733              1.613
 Vibration    11          0.689              1.684              1.449
 Vibration    12          0.697              1.660              1.377
 Vibration    13          0.697              1.660              1.376
 Vibration    14          0.711              1.621              1.273
 Vibration    15          0.726              1.577              1.171
 Vibration    16          0.728              1.572              1.158
 Vibration    17          0.749              1.514              1.041
 Vibration    18          0.800              1.383              0.827
 Vibration    19          0.822              1.329              0.754
 Vibration    20          0.825              1.323              0.745
 Vibration    21          0.869              1.218              0.623
 Vibration    22          0.874              1.209              0.613
 Vibration    23          0.884              1.185              0.589
 Vibration    24          0.887              1.180              0.584
 Vibration    25          0.977              0.995              0.421

 Optimization completed.
    -- Stationary point found.
 Normal termination of Gaussian 09 at Tue Dec 17 18:30:24 2024.
