 Gaussian 09, Revision E.01,
 Gaussian 09:  ES64L-G09RevE.01 30-Nov-2015

 -----------------------------------------------------
 # opt freq pbepbe/6-31+g(d,p) empiricaldispersion=gd3
 -----------------------------------------------------

 ----------
 [No Title]
 ----------
 Symbolic Z-matrix:
 Charge =  1 Multiplicity = 1

 SCF Done:  E(RPBE-PBE) =  -653.423904306     A.U. after   16 cycles
 SCF Done:  E(RPBE-PBE) =  -653.425713157     A.U. after   13 cycles
 SCF Done:  E(RPBE-PBE) =  -653.425670370     A.U. after   12 cycles
 SCF Done:  E(RPBE-PBE) =  -653.425766192     A.U. after    7 cycles
 SCF Done:  E(RPBE-PBE) =  -653.425838836     A.U. after   12 cycles
 SCF Done:  E(RPBE-PBE) =  -653.425485390     A.U. after   12 cycles
 SCF Done:  E(RPBE-PBE) =  -653.425858291     A.U. after    8 cycles
 SCF Done:  E(RPBE-PBE) =  -653.425850650     A.U. after   12 cycles
 SCF Done:  E(RPBE-PBE) =  -653.425934530     A.U. after   12 cycles
 SCF Done:  E(RPBE-PBE) =  -653.425961817     A.U. after   10 cycles
 SCF Done:  E(RPBE-PBE) =  -653.425968488     A.U. after   11 cycles
 SCF Done:  E(RPBE-PBE) =  -653.425968894     A.U. after   10 cycles
 SCF Done:  E(RPBE-PBE) =  -653.425968939     A.U. after    9 cycles
 SCF Done:  E(RPBE-PBE) =  -653.425968973     A.U. after    8 cycles
 Optimization completed.
    -- Stationary point found.
 Normal termination of Gaussian 09 at Tue Dec 17 19:13:44 2024.

 ----------------------------------------------------------------------
 #N Geom=AllCheck Guess=TCheck SCRF=Check GenChk RPBEPBE/6-31+G(d,p) Fr
 eq
 ----------------------------------------------------------------------

 Structure from the checkpoint file:  "pbeD3DMANyang.chk"
 ----------
 [No Title]
 ----------
 Charge =  1 Multiplicity = 1

                         Standard orientation:
 ---------------------------------------------------------------------
 Center     Atomic      Atomic             Coordinates (Angstroms)
 Number     Number       Type             X           Y           Z
 ---------------------------------------------------------------------
      1          6           0        0.739155   -2.455113    0.000224
      2          6           0        2.155708   -2.426436    0.000221
      3          6           0        2.820106   -1.211797    0.000093
      4          6           0        2.105793    0.021051   -0.000022
      5          6           0        0.658465    0.008884    0.000004
      6          6           0        0.018050   -1.272789    0.000114
      7          6           0        2.796403    1.266989   -0.000166
      8          6           0        2.104826    2.466132   -0.000286
      9          6           0        0.687880    2.465003   -0.000247
     10          6           0       -0.020514    1.272910   -0.000097
     11          7           0       -1.462195   -1.299989    0.000070
     12          7           0       -1.492137    1.268817   -0.000013
     13          6           0       -2.033532   -1.909688   -1.239228
     14          6           0       -2.033636   -1.909701    1.239310
     15          6           0       -2.066828    1.875871    1.230880
     16          6           0       -2.067006    1.875753   -1.230878
     17          1           0        0.219980   -3.418329    0.000307
     18          1           0        2.714154   -3.365769    0.000312
     19          1           0        3.913793   -1.181549    0.000074
     20          1           0        3.890437    1.258878   -0.000186
     21          1           0        2.643667    3.417081   -0.000404
     22          1           0        0.150322    3.418076   -0.000326
     23          1           0       -1.691462   -0.122129    0.000053
     24          1           0       -3.124493   -1.766296   -1.234459
     25          1           0       -1.595260   -1.412715   -2.115767
     26          1           0       -1.806990   -2.986086   -1.282281
     27          1           0       -3.124590   -1.766260    1.234474
     28          1           0       -1.595400   -1.412778    2.115895
     29          1           0       -1.807153   -2.986113    1.282345
     30          1           0       -1.622252    1.396072    2.115004
     31          1           0       -1.869395    2.960846    1.279916
     32          1           0       -3.155964    1.713185    1.234217
     33          1           0       -1.622530    1.395899   -2.115021
     34          1           0       -3.156137    1.713028   -1.234058
     35          1           0       -1.869628    2.960733   -1.280028
 ---------------------------------------------------------------------

 SCF Done:  E(RPBE-PBE) =  -653.425968973     A.U. after    1 cycles

 The electronic state is 1-A.
 Alpha  occ. eigenvalues --  -14.22856 -14.19709 -10.09002 -10.08330 -10.08143
 Alpha  occ. eigenvalues --  -10.08142 -10.06754 -10.06753 -10.06571 -10.05406
 Alpha  occ. eigenvalues --  -10.05125 -10.04588 -10.04046 -10.03969 -10.03810
 Alpha  occ. eigenvalues --  -10.03754  -1.04721  -1.01030  -0.92787  -0.87972
 Alpha  occ. eigenvalues --   -0.83935  -0.81200  -0.80612  -0.79306  -0.78942
 Alpha  occ. eigenvalues --   -0.75152  -0.73130  -0.70212  -0.68437  -0.65851
 Alpha  occ. eigenvalues --   -0.62120  -0.61123  -0.60308  -0.58290  -0.57797
 Alpha  occ. eigenvalues --   -0.56918  -0.55893  -0.54735  -0.54099  -0.52334
 Alpha  occ. eigenvalues --   -0.51343  -0.51043  -0.50133  -0.49623  -0.49514
 Alpha  occ. eigenvalues --   -0.48799  -0.48463  -0.48014  -0.47177  -0.47017
 Alpha  occ. eigenvalues --   -0.46164  -0.43692  -0.43323  -0.42592  -0.39052
 Alpha  occ. eigenvalues --   -0.35951  -0.35829  -0.33072
 Alpha virt. eigenvalues --   -0.21146  -0.18111  -0.15024  -0.14150  -0.11436
 Alpha virt. eigenvalues --   -0.10907  -0.10725  -0.10725  -0.09876  -0.09101
 Alpha virt. eigenvalues --   -0.08655  -0.08336  -0.07914  -0.07793  -0.07152

 Mulliken charges:
               1
     1  C   -0.114678
     2  C   -0.281808
     3  C   -0.044639
     4  C   -0.487740
     5  C   -0.044447
     6  C   -0.125333
     7  C   -0.058625
     8  C   -0.277652
     9  C   -0.116744
    10  C   -0.151329
    11  N   -0.239984
    12  N   -0.264021
    13  C   -0.185590
    14  C   -0.185543
    15  C   -0.180525
    16  C   -0.180490
    17  H    0.161027
    18  H    0.178490
    19  H    0.172828
    20  H    0.172003
    21  H    0.177712
    22  H    0.161582
    23  H    0.488171
    24  H    0.203544
    25  H    0.209284
    26  H    0.209445
    27  H    0.203544
    28  H    0.209289
    29  H    0.209440
    30  H    0.197210
    31  H    0.199747
    32  H    0.194440
    33  H    0.197210
    34  H    0.194440
    35  H    0.199745
 Sum of Mulliken charges =   1.00000

 Dipole moment (field-independent basis, Debye):
    X=             -3.9020    Y=             -0.8259    Z=              0.0000  Tot=              3.9884
 Quadrupole moment (field-independent basis, Debye-Ang):
   XX=            -62.8835   YY=            -65.0398   ZZ=            -91.9627
   XY=              1.6104   XZ=             -0.0004   YZ=             -0.0020

  Exact polarizability: 203.443  -0.504 221.356  -0.001  -0.010 113.725
 Approx polarizability: 382.481  -0.878 470.138  -0.003  -0.027 192.868

                      1                      2                      3
                      A                      A                      A
 Frequencies --     28.7456                92.5223               126.1657
 Red. masses --      3.5063                 2.7556                 3.2745
 Frc consts  --      0.0017                 0.0139                 0.0307
 IR Inten    --      0.0231                 0.1478                 0.3879

                      4                      5                      6
                      A                      A                      A
 Frequencies --    148.3910               163.4054               172.1582
 Red. masses --      2.3402                 2.6257                 3.3280
 Frc consts  --      0.0304                 0.0413                 0.0581
 IR Inten    --      0.0316                71.6563                 3.8805

                      7                      8                      9
                      A                      A                      A
 Frequencies --    185.2643               222.0595               224.7128
 Red. masses --      3.7566                 1.1057                 1.4305
 Frc consts  --      0.0760                 0.0321                 0.0426
 IR Inten    --      0.0753                 0.0111                 0.0316

                     10                     11                     12
                      A                      A                      A
 Frequencies --    238.6551               254.5862               259.6045
 Red. masses --      1.0737                 2.2555                 1.2026
 Frc consts  --      0.0360                 0.0861                 0.0478
 IR Inten    --      0.0324                 2.1116                 7.5542

                     13                     14                     15
                      A                      A                      A
 Frequencies --    268.5852               311.7984               312.7902
 Red. masses --      2.0417                 3.3640                 2.6286
 Frc consts  --      0.0868                 0.1927                 0.1515
 IR Inten    --      0.8133                 0.0460                12.9563

                     16                     17                     18
                      A                      A                      A
 Frequencies --    369.8757               406.3412               439.5800
 Red. masses --      3.6937                 2.4902                 3.0497
 Frc consts  --      0.2977                 0.2422                 0.3472
 IR Inten    --     12.7495               234.7930                 0.9803

                     19                     20                     21
                      A                      A                      A
 Frequencies --    458.6003               475.2734               506.4752
 Red. masses --      3.3679                 3.6469                 4.6024
 Frc consts  --      0.4173                 0.4854                 0.6956
 IR Inten    --      0.4481               161.2372                34.4212

                     22                     23                     24
                      A                      A                      A
 Frequencies --    521.2701               522.4239               551.6526
 Red. masses --      3.6106                 5.2156                 3.9169
 Frc consts  --      0.5780                 0.8387                 0.7023
 IR Inten    --      0.0053                11.0724                 0.1926

                     25                     26                     27
                      A                      A                      A
 Frequencies --    624.8269               630.4265               644.0398
 Red. masses --      4.1283                 2.9551                 3.1345
 Frc consts  --      0.9496                 0.6920                 0.7660
 IR Inten    --      0.1010               353.1163                 0.0298

                     28                     29                     30
                      A                      A                      A
 Frequencies --    743.3611               750.9531               757.5297
 Red. masses --      4.3155                 2.1861                 1.2976
 Frc consts  --      1.4050                 0.7264                 0.4387
 IR Inten    --     35.0382                59.6554                 0.0900

                     31                     32                     33
                      A                      A                      A
 Frequencies --    771.8875               811.2631               812.3838
 Red. masses --      5.2572                 2.2200                 2.5674
 Frc consts  --      1.8455                 0.8609                 0.9983
 IR Inten    --      1.0186                31.6867               461.7996

                     34                     35                     36
                      A                      A                      A
 Frequencies --    887.9836               888.9135               906.5524
 Red. masses --      1.3691                 3.8660                 1.4471
 Frc consts  --      0.6361                 1.7998                 0.7007
 IR Inten    --      0.0823                43.3690                 2.2709

                     37                     38                     39
                      A                      A                      A
 Frequencies --    931.7945               955.5892               966.5733
 Red. masses --      2.3282                 1.3197                 1.3375
 Frc consts  --      1.1910                 0.7100                 0.7362
 IR Inten    --    165.2661                 0.0045                 0.4322

                     40                     41                     42
                      A                      A                      A
 Frequencies --    995.7093              1002.4919              1006.8442
 Red. masses --      1.9941                 2.7823                 1.8409
 Frc consts  --      1.1648                 1.6475                 1.0995
 IR Inten    --     10.5738                33.2990                13.8797

                     43                     44                     45
                      A                      A                      A
 Frequencies --   1031.8742              1053.8194              1071.7217
 Red. masses --      2.8066                 1.2161                 1.2502
 Frc consts  --      1.7607                 0.7957                 0.8460
 IR Inten    --    199.7957                 0.5924                 0.3502

                     46                     47                     48
                      A                      A                      A
 Frequencies --   1085.6427              1096.3178              1146.8523
 Red. masses --      1.8036                 1.9398                 2.3028
 Frc consts  --      1.2525                 1.3737                 1.7845
 IR Inten    --      2.2236                74.7978                 4.6115

                     49                     50                     51
                      A                      A                      A
 Frequencies --   1153.0243              1156.5544              1161.1349
 Red. masses --      1.4640                 2.7160                 1.2436
 Frc consts  --      1.1468                 2.1405                 0.9878
 IR Inten    --      4.5777                 5.0267                20.4235

                     52                     53                     54
                      A                      A                      A
 Frequencies --   1172.8835              1182.0538              1197.3560
 Red. masses --      1.3829                 1.3421                 1.6702
 Frc consts  --      1.1208                 1.1049                 1.4108
 IR Inten    --     27.0870                41.7872                32.1828

                     55                     56                     57
                      A                      A                      A
 Frequencies --   1222.8214              1233.5572              1249.2834
 Red. masses --      1.8367                 2.3477                 2.3729
 Frc consts  --      1.6182                 2.1048                 2.1820
 IR Inten    --      1.9744                50.3273               103.5857

                     58                     59                     60
                      A                      A                      A
 Frequencies --   1256.6122              1363.7437              1379.2207
 Red. masses --      2.2304                 2.4955                 5.4737
 Frc consts  --      2.0751                 2.7345                 6.1348
 IR Inten    --     30.7393                45.4602                 0.6258

                     61                     62                     63
                      A                      A                      A
 Frequencies --   1383.2752              1392.7997              1397.2697
 Red. masses --      5.2504                 1.1402                 1.1383
 Frc consts  --      5.9191                 1.3032                 1.3094
 IR Inten    --      1.8918                 0.1800                10.7876

                     64                     65                     66
                      A                      A                      A
 Frequencies --   1425.9329              1430.3484              1431.0286
 Red. masses --      1.4489                 1.5089                 1.0395
 Frc consts  --      1.7358                 1.8189                 1.2543
 IR Inten    --      1.7162                 1.9982                 0.0271

                     67                     68                     69
                      A                      A                      A
 Frequencies --   1435.2580              1440.3415              1445.8714
 Red. masses --      1.2935                 1.0460                 1.0427
 Frc consts  --      1.5699                 1.2786                 1.2843
 IR Inten    --     21.9840                 3.3135                 1.2115

                     70                     71                     72
                      A                      A                      A
 Frequencies --   1452.1883              1457.8336              1458.5577
 Red. masses --      1.0420                 1.1184                 1.6970
 Frc consts  --      1.2946                 1.4004                 2.1271
 IR Inten    --     16.7251                85.7111                 7.3411

                     73                     74                     75
                      A                      A                      A
 Frequencies --   1462.1777              1469.6382              1472.6988
 Red. masses --      1.0925                 1.2652                 1.0605
 Frc consts  --      1.3762                 1.6100                 1.3552
 IR Inten    --     38.5965               125.0319                28.5798

                     76                     77                     78
                      A                      A                      A
 Frequencies --   1517.2671              1577.2850              1600.7053
 Red. masses --      3.8135                 7.3064                 4.8909
 Frc consts  --      5.1724                10.7096                 7.3835
 IR Inten    --     42.6654                 4.1737                28.5234

                     79                     80                     81
                      A                      A                      A
 Frequencies --   1626.6751              1657.1558              1782.9856
 Red. masses --      6.7521                 1.0713                 1.0969
 Frc consts  --     10.5266                 1.7333                 2.0546
 IR Inten    --      5.6113                 1.2369                94.2596

                     82                     83                     84
                      A                      A                      A
 Frequencies --   2977.6909              2980.8898              2999.4419
 Red. masses --      1.0345                 1.0355                 1.0316
 Frc consts  --      5.4045                 5.4211                 5.4683
 IR Inten    --     15.1936                17.9512                 7.7699

                     85                     86                     87
                      A                      A                      A
 Frequencies --   3002.4488              3061.3920              3061.8920
 Red. masses --      1.0324                 1.1013                 1.1027
 Frc consts  --      5.4836                 6.0814                 6.0911
 IR Inten    --      8.6852                15.5698                 0.4635

                     88                     89                     90
                      A                      A                      A
 Frequencies --   3090.4694              3090.9065              3092.4340
 Red. masses --      1.1068                 1.1057                 1.1050
 Frc consts  --      6.2284                 6.2236                 6.2260
 IR Inten    --      0.0163                 7.7118                 2.5638

                     91                     92                     93
                      A                      A                      A
 Frequencies --   3093.8710              3108.3067              3109.4869
 Red. masses --      1.1053                 1.1057                 1.1063
 Frc consts  --      6.2337                 6.2943                 6.3026
 IR Inten    --     11.9549                 1.2335                 6.6618

                     94                     95                     96
                      A                      A                      A
 Frequencies --   3128.6418              3128.8701              3134.0499
 Red. masses --      1.0887                 1.0881                 1.0907
 Frc consts  --      6.2789                 6.2763                 6.3120
 IR Inten    --      3.1377                 1.7428                 0.0554

                     97                     98                     99
                      A                      A                      A
 Frequencies --   3135.5244              3153.7773              3155.8870
 Red. masses --      1.0904                 1.0969                 1.0966
 Frc consts  --      6.3159                 6.4279                 6.4348
 IR Inten    --      3.4049                 1.3552                 0.9056

 - Thermochemistry -
 -------------------
 Temperature   298.150 Kelvin.  Pressure   1.00000 Atm.
 Atom     1 has atomic number  6 and mass  12.00000

 Molecular mass:   215.15482 amu.
 Principal axes and moments of inertia in atomic units:
                           1         2         3
     Eigenvalues --  2829.736973023.798415110.61886
           X            1.00000   0.00139   0.00001
           Y           -0.00139   1.00000   0.00007
           Z           -0.00001  -0.00007   1.00000
 This molecule is an asymmetric top.
 Rotational symmetry number  1.
 Warning -- assumption of classical behavior for rotation
           may cause significant error
 Rotational temperatures (Kelvin)      0.03061     0.02864     0.01695
 Rotational constants (GHZ):           0.63778     0.59685     0.35314
 Zero-point vibrational energy     779892.3 (Joules/Mol)
                                  186.39873 (Kcal/Mol)
 Warning -- explicit consideration of  24 degrees of freedom as
           vibrations may cause significant error
 Vibrational temperatures:     41.36   133.12   181.52   213.50   235.10
          (Kelvin)            247.70   266.55   319.49   323.31   343.37
                              366.29   373.51   386.43   448.61   450.03
                              532.17   584.63   632.46   659.82   683.81
                              728.70   749.99   751.65   793.70   898.99
                              907.04   926.63  1069.53  1080.45  1089.91
                             1110.57  1167.23  1168.84  1277.61  1278.95
                             1304.33  1340.64  1374.88  1390.68  1432.60
                             1442.36  1448.62  1484.64  1516.21  1541.97
                             1562.00  1577.35  1650.06  1658.94  1664.02
                             1670.61  1687.52  1700.71  1722.73  1759.37
                             1774.81  1797.44  1807.98  1962.12  1984.39
                             1990.22  2003.93  2010.36  2051.60  2057.95
                             2058.93  2065.01  2072.33  2080.28  2089.37
                             2097.49  2098.54  2103.75  2114.48  2118.88
                             2183.01  2269.36  2303.06  2340.42  2384.27
                             2565.32  4284.23  4288.83  4315.52  4319.85
                             4404.65  4405.37  4446.49  4447.12  4449.32
                             4451.38  4472.15  4473.85  4501.41  4501.74
                             4509.19  4511.31  4537.58  4540.61

 Zero-point correction=                           0.297045 (Hartree/Particle)
 Thermal correction to Energy=                    0.312486
 Thermal correction to Enthalpy=                  0.313431
 Thermal correction to Gibbs Free Energy=         0.255746
 Sum of electronic and zero-point Energies=           -653.128924
 Sum of electronic and thermal Energies=              -653.113483
 Sum of electronic and thermal Enthalpies=            -653.112538
 Sum of electronic and thermal Free Energies=         -653.170223

                     E (Thermal)             CV                S
                      KCal/Mol        Cal/Mol-Kelvin    Cal/Mol-Kelvin
 Total                  196.088             61.881            121.407
 Electronic               0.000              0.000              0.000
 Translational            0.889              2.981             42.002
 Rotational               0.889              2.981             32.147
 Vibrational            194.311             55.919             47.258
 Vibration     1          0.593              1.984              5.914
 Vibration     2          0.602              1.955              3.606
 Vibration     3          0.611              1.927              3.004
 Vibration     4          0.618              1.904              2.693
 Vibration     5          0.623              1.887              2.510
 Vibration     6          0.626              1.877              2.412
 Vibration     7          0.631              1.860              2.275
 Vibration     8          0.648              1.807              1.942
 Vibration     9          0.649              1.803              1.921
 Vibration    10          0.657              1.781              1.813
 Vibration    11          0.665              1.755              1.699
 Vibration    12          0.668              1.746              1.664
 Vibration    13          0.673              1.731              1.605
 Vibration    14          0.700              1.651              1.353
 Vibration    15          0.701              1.649              1.348
 Vibration    16          0.742              1.534              1.080
 Vibration    17          0.771              1.456              0.940
 Vibration    18          0.800              1.384              0.828
 Vibration    19          0.817              1.342              0.770
 Vibration    20          0.832              1.305              0.723
 Vibration    21          0.862              1.236              0.642
 Vibration    22          0.876              1.203              0.607
 Vibration    23          0.877              1.200              0.604
 Vibration    24          0.907              1.136              0.541

 Optimization completed.
    -- Stationary point found.
 Normal termination of Gaussian 09 at Tue Dec 17 19:18:08 2024.
