 Gaussian 09, Revision E.01,
 Gaussian 09:  ES64L-G09RevE.01 30-Nov-2015

 -----------------------------
 # opt freq 6-311+g(d,p) m062x
 -----------------------------

 ----------
 [No Title]
 ----------
 Symbolic Z-matrix:
 Charge =  0 Multiplicity = 1

 SCF Done:  E(RM062X) =  -802.388814566     A.U. after   16 cycles
 SCF Done:  E(RM062X) =  -802.388929344     A.U. after   12 cycles
 SCF Done:  E(RM062X) =  -802.388974389     A.U. after   14 cycles
 SCF Done:  E(RM062X) =  -802.388992824     A.U. after   12 cycles
 SCF Done:  E(RM062X) =  -802.389003156     A.U. after   11 cycles
 SCF Done:  E(RM062X) =  -802.389004193     A.U. after    9 cycles
 SCF Done:  E(RM062X) =  -802.389004830     A.U. after    9 cycles
 SCF Done:  E(RM062X) =  -802.343036542     A.U. after   14 cycles
 SCF Done:  E(RM062X) =  -802.389004952     A.U. after    7 cycles
 SCF Done:  E(RM062X) =  -802.389932451     A.U. after   14 cycles
 SCF Done:  E(RM062X) =  -802.407056934     A.U. after   13 cycles
 SCF Done:  E(RM062X) =  -802.407125828     A.U. after   12 cycles
 SCF Done:  E(RM062X) =  -802.407143881     A.U. after   12 cycles
 SCF Done:  E(RM062X) =  -802.407148908     A.U. after   11 cycles
 SCF Done:  E(RM062X) =  -802.407149171     A.U. after    9 cycles
 SCF Done:  E(RM062X) =  -802.407149255     A.U. after   10 cycles
 SCF Done:  E(RM062X) =  -802.407149327     A.U. after   10 cycles
 SCF Done:  E(RM062X) =  -802.407149530     A.U. after   10 cycles
 SCF Done:  E(RM062X) =  -802.407149664     A.U. after   10 cycles
 Optimization completed.
    -- Stationary point found.
 Normal termination of Gaussian 09 at Mon Feb 26 15:57:02 2024.

 ----------------------------------------------------------------------
 #N Geom=AllCheck Guess=TCheck SCRF=Check GenChk RM062X/6-311+G(d,p) Fr
 eq
 ----------------------------------------------------------------------

 Structure from the checkpoint file:  "lwm06311SA.chk"
 ----------
 [No Title]
 ----------
 Charge =  0 Multiplicity = 1

                         Standard orientation:
 ---------------------------------------------------------------------
 Center     Atomic      Atomic             Coordinates (Angstroms)
 Number     Number       Type             X           Y           Z
 ---------------------------------------------------------------------
      1          6           0       -2.381190   -0.215974    0.000079
      2          6           0       -1.913970    1.100417    0.000209
      3          6           0       -0.540955    1.336581    0.000380
      4          6           0        0.371113    0.276729    0.000311
      5          6           0       -0.098462   -1.041597    0.000217
      6          6           0       -1.463959   -1.273937    0.000094
      7          8           0       -3.708198   -0.451814    0.000004
      8          8           0       -2.868627    2.057831    0.000254
      9          6           0       -2.442141    3.404445   -0.000878
     10          8           0       -2.061011   -2.501320    0.000009
     11          6           0       -1.221984   -3.640560   -0.000079
     12          6           0        1.796720    0.596557    0.000429
     13          6           0        2.823680   -0.261820   -0.000412
     14          6           0        4.201924    0.259485   -0.000055
     15          8           0        5.109464   -0.741889   -0.000768
     16          8           0        4.528116    1.418721    0.000753
     17          1           0       -0.161603    2.349773    0.000553
     18          1           0        0.597148   -1.868628    0.000238
     19          1           0       -3.836897   -1.408291   -0.000187
     20          1           0       -3.348933    4.004498   -0.001491
     21          1           0       -1.853834    3.633760    0.893154
     22          1           0       -1.853610    3.632156   -0.895174
     23          1           0       -0.593151   -3.659389   -0.894764
     24          1           0       -0.593184   -3.659549    0.894631
     25          1           0       -1.882573   -4.504159   -0.000146
     26          1           0        2.050422    1.654716    0.001239
     27          1           0        2.710003   -1.338210   -0.001331
     28          1           0        5.983606   -0.330876   -0.000512
 ---------------------------------------------------------------------

 SCF Done:  E(RM062X) =  -802.407149664     A.U. after    1 cycles

 The electronic state is 1-A.
 Alpha  occ. eigenvalues --  -19.67915 -19.66964 -19.66152 -19.65923 -19.61250
 Alpha  occ. eigenvalues --  -10.67821 -10.62008 -10.61558 -10.61438 -10.61006
 Alpha  occ. eigenvalues --  -10.59661 -10.57154 -10.56650 -10.55652 -10.55485
 Alpha  occ. eigenvalues --  -10.55390  -1.23866  -1.22726  -1.20802  -1.18555
 Alpha  occ. eigenvalues --   -1.14147  -0.98053  -0.91646  -0.87381  -0.86115
 Alpha  occ. eigenvalues --   -0.82032  -0.79920  -0.76483  -0.70837  -0.69843
 Alpha  occ. eigenvalues --   -0.65947  -0.63641  -0.62701  -0.59398  -0.58998
 Alpha  occ. eigenvalues --   -0.58102  -0.57619  -0.56600  -0.55945  -0.54641
 Alpha  occ. eigenvalues --   -0.53643  -0.53161  -0.50763  -0.50366  -0.49526
 Alpha  occ. eigenvalues --   -0.48349  -0.46963  -0.45278  -0.44386  -0.43291
 Alpha  occ. eigenvalues --   -0.43125  -0.43002  -0.41093  -0.41006  -0.39821
 Alpha  occ. eigenvalues --   -0.36066  -0.34327  -0.29398  -0.26282
 Alpha virt. eigenvalues --   -0.04079   0.00247   0.01121   0.01285   0.02072
 Alpha virt. eigenvalues --    0.02838   0.03139   0.03390   0.03699   0.04799
 Alpha virt. eigenvalues --    0.04894   0.05511   0.05842   0.06654   0.06664

 Mulliken charges:
               1
     1  C   -0.826296
     2  C   -0.489037
     3  C    1.078808
     4  C    0.885076
     5  C   -0.410258
     6  C   -0.410026
     7  O   -0.280960
     8  O   -0.120496
     9  C   -0.271050
    10  O   -0.217838
    11  C   -0.268635
    12  C   -0.131563
    13  C   -0.450381
    14  C    0.170122
    15  O   -0.233709
    16  O   -0.338412
    17  H    0.166589
    18  H    0.153502
    19  H    0.299479
    20  H    0.185799
    21  H    0.165766
    22  H    0.165751
    23  H    0.172063
    24  H    0.172062
    25  H    0.184711
    26  H    0.192781
    27  H    0.171372
    28  H    0.284781
 Sum of Mulliken charges =  -0.00000

 Dipole moment (field-independent basis, Debye):
    X=             -0.4042    Y=             -2.4158    Z=             -0.0024  Tot=              2.4494
 Quadrupole moment (field-independent basis, Debye-Ang):
   XX=           -102.6376   YY=            -74.8664   ZZ=            -96.7863
   XY=             -4.6928   XZ=              0.0012   YZ=             -0.0045

  Exact polarizability: 230.275  -3.905 169.534  -0.003   0.011  83.855
 Approx polarizability: 257.478  -5.256 202.249  -0.007   0.022 111.755

                      1                      2                      3
                      A                      A                      A
 Frequencies --     21.2328                51.1283                67.3693
 Red. masses --      6.2293                 3.0354                 7.4367
 Frc consts  --      0.0017                 0.0047                 0.0199
 IR Inten    --      0.1222                 8.2109                 0.4016

                      4                      5                      6
                      A                      A                      A
 Frequencies --     71.4130                87.7420               124.2732
 Red. masses --      5.7236                 3.5361                 3.3861
 Frc consts  --      0.0172                 0.0160                 0.0308
 IR Inten    --      0.3580                 0.5364                 0.2150

                      7                      8                      9
                      A                      A                      A
 Frequencies --    158.8689               181.7872               205.0708
 Red. masses --      5.4951                 4.4281                 4.6061
 Frc consts  --      0.0817                 0.0862                 0.1141
 IR Inten    --      3.0282                 3.6280                 1.4589

                     10                     11                     12
                      A                      A                      A
 Frequencies --    224.4393               252.2817               255.1270
 Red. masses --      1.8702                 2.2629                 5.3800
 Frc consts  --      0.0555                 0.0849                 0.2063
 IR Inten    --      0.1352                 0.0197                 1.0456

                     13                     14                     15
                      A                      A                      A
 Frequencies --    294.5389               306.2664               316.0568
 Red. masses --      1.3486                 6.6134                 1.4667
 Frc consts  --      0.0689                 0.3655                 0.0863
 IR Inten    --      0.0918                 6.0245                 0.0001

                     16                     17                     18
                      A                      A                      A
 Frequencies --    370.8697               383.8974               392.0827
 Red. masses --      4.2751                 4.5102                 3.4556
 Frc consts  --      0.3465                 0.3916                 0.3130
 IR Inten    --      0.7702                 0.8622                 6.0274

                     19                     20                     21
                      A                      A                      A
 Frequencies --    447.3635               502.7202               515.1231
 Red. masses --      1.1956                 5.7985                 5.4673
 Frc consts  --      0.1410                 0.8634                 0.8548
 IR Inten    --     97.4362                 8.8140                19.2457

                     22                     23                     24
                      A                      A                      A
 Frequencies --    542.0698               576.4489               598.6335
 Red. masses --      6.8197                 2.0473                 4.6087
 Frc consts  --      1.1807                 0.4008                 0.9731
 IR Inten    --      1.9466                15.0940                 0.0796

                     25                     26                     27
                      A                      A                      A
 Frequencies --    615.5620               623.1359               674.9432
 Red. masses --      5.4031                 1.5858                 4.1291
 Frc consts  --      1.2063                 0.3628                 1.1082
 IR Inten    --     84.4079                93.5739                16.4328

                     28                     29                     30
                      A                      A                      A
 Frequencies --    720.6812               753.6945               763.3139
 Red. masses --      4.7775                 7.6157                 3.4634
 Frc consts  --      1.4620                 2.5489                 1.1889
 IR Inten    --      1.6515                 0.6179                19.2901

                     31                     32                     33
                      A                      A                      A
 Frequencies --    835.1465               835.5155               857.2324
 Red. masses --      1.4721                 5.5052                 1.4754
 Frc consts  --      0.6049                 2.2643                 0.6388
 IR Inten    --     28.0671                12.8517                28.0146

                     34                     35                     36
                      A                      A                      A
 Frequencies --    898.2278               959.2589               985.5310
 Red. masses --      2.0528                 5.0107                 3.6125
 Frc consts  --      0.9758                 2.7166                 2.0673
 IR Inten    --     18.5778                19.9810                19.3713

                     37                     38                     39
                      A                      A                      A
 Frequencies --   1026.9995              1030.9655              1114.8621
 Red. masses --      3.9544                 1.1652                 4.8334
 Frc consts  --      2.4573                 0.7297                 3.5395
 IR Inten    --      2.7253                33.1641                 1.9233

                     40                     41                     42
                      A                      A                      A
 Frequencies --   1170.6347              1183.8649              1187.1830
 Red. masses --      2.2895                 1.2798                 2.9260
 Frc consts  --      1.8486                 1.0568                 2.4298
 IR Inten    --    590.0873                 1.1230               241.8979

                     43                     44                     45
                      A                      A                      A
 Frequencies --   1192.5456              1200.3061              1219.4175
 Red. masses --      1.2710                 1.7705                 1.3876
 Frc consts  --      1.0650                 1.5029                 1.2157
 IR Inten    --      0.9191                70.5789                10.5365

                     46                     47                     48
                      A                      A                      A
 Frequencies --   1227.4676              1264.6320              1272.4750
 Red. masses --      1.4938                 2.0435                 1.5253
 Frc consts  --      1.3261                 1.9255                 1.4551
 IR Inten    --     25.4244               381.1622                26.1138

                     49                     50                     51
                      A                      A                      A
 Frequencies --   1303.8951              1311.5620              1340.3602
 Red. masses --      1.7605                 3.0806                 1.4297
 Frc consts  --      1.7635                 3.1223                 1.5134
 IR Inten    --     93.1621                35.8399                28.2861

                     52                     53                     54
                      A                      A                      A
 Frequencies --   1379.1733              1406.6446              1430.0518
 Red. masses --      2.7513                 3.3761                 2.9592
 Frc consts  --      3.0833                 3.9358                 3.5656
 IR Inten    --    310.3279                98.6438                85.4870

                     55                     56                     57
                      A                      A                      A
 Frequencies --   1475.7821              1496.3509              1509.2206
 Red. masses --      1.5084                 1.3166                 1.0425
 Frc consts  --      1.9356                 1.7369                 1.3990
 IR Inten    --     87.6536                 9.6456                11.3072

                     58                     59                     60
                      A                      A                      A
 Frequencies --   1510.6215              1511.8499              1515.6882
 Red. masses --      1.0440                 2.1264                 1.1355
 Frc consts  --      1.4037                 2.8636                 1.5369
 IR Inten    --     12.1067               118.5752                70.6184

                     61                     62                     63
                      A                      A                      A
 Frequencies --   1519.4368              1581.3478              1667.0817
 Red. masses --      1.0619                 5.2096                 6.7023
 Frc consts  --      1.4445                 7.6756                10.9746
 IR Inten    --     46.6628               326.4076                72.1091

                     64                     65                     66
                      A                      A                      A
 Frequencies --   1683.6003              1716.7849              1842.8425
 Red. masses --      6.6685                 6.4632                 9.5039
 Frc consts  --     11.1368                11.2234                19.0164
 IR Inten    --    226.9851               298.9283               389.4359

                     67                     68                     69
                      A                      A                      A
 Frequencies --   3043.2986              3058.1184              3108.8535
 Red. masses --      1.0351                 1.0326                 1.1064
 Frc consts  --      5.6484                 5.6900                 6.3002
 IR Inten    --     39.6085                31.9058                25.8085

                     70                     71                     72
                      A                      A                      A
 Frequencies --   3129.6656              3179.1016              3179.3697
 Red. masses --      1.1069                 1.1018                 1.0912
 Frc consts  --      6.3876                 6.5609                 6.4988
 IR Inten    --     21.0625                12.3602                 0.5079

                     73                     74                     75
                      A                      A                      A
 Frequencies --   3181.9575              3217.8806              3221.8319
 Red. masses --      1.1001                 1.0917                 1.0907
 Frc consts  --      6.5624                 6.6605                 6.6704
 IR Inten    --     15.2497                 4.0276                 0.7427

                     76                     77                     78
                      A                      A                      A
 Frequencies --   3234.6397              3835.1090              3854.6406
 Red. masses --      1.0899                 1.0647                 1.0651
 Frc consts  --      6.7188                 9.2262                 9.3245
 IR Inten    --      2.2807               147.3170               170.6475

 - Thermochemistry -
 -------------------
 Temperature   298.150 Kelvin.  Pressure   1.00000 Atm.
 Atom     1 has atomic number  6 and mass  12.00000

 Molecular mass:   224.06847 amu.
 Principal axes and moments of inertia in atomic units:
                           1         2         3
     Eigenvalues --  2482.190336544.306749003.46290
           X            0.99994  -0.01075   0.00000
           Y            0.01075   0.99994  -0.00001
           Z           -0.00000   0.00001   1.00000
 This molecule is an asymmetric top.
 Rotational symmetry number  1.
 Warning -- assumption of classical behavior for rotation
           may cause significant error
 Rotational temperatures (Kelvin)      0.03489     0.01323     0.00962
 Rotational constants (GHZ):           0.72708     0.27577     0.20045
 Zero-point vibrational energy     580231.7 (Joules/Mol)
                                  138.67870 (Kcal/Mol)
 Warning -- explicit consideration of  25 degrees of freedom as
           vibrations may cause significant error
 Vibrational temperatures:     30.55    73.56    96.93   102.75   126.24
          (Kelvin)            178.80   228.58   261.55   295.05   322.92
                              362.98   367.07   423.78   440.65   454.73
                              533.60   552.34   564.12   643.66   723.30
                              741.15   779.92   829.38   861.30   885.66
                              896.55   971.09  1036.90  1084.40  1098.24
                             1201.59  1202.12  1233.36  1292.35  1380.16
                             1417.96  1477.62  1483.33  1604.04  1684.28
                             1703.32  1708.09  1715.81  1726.97  1754.47
                             1766.05  1819.52  1830.81  1876.01  1887.04
                             1928.48  1984.32  2023.85  2057.52  2123.32
                             2152.91  2171.43  2173.44  2175.21  2180.73
                             2186.13  2275.20  2398.56  2422.32  2470.07
                             2651.44  4378.62  4399.94  4472.94  4502.89
                             4574.01  4574.40  4578.12  4629.81  4635.49
                             4653.92  5517.86  5545.96

 Zero-point correction=                           0.220999 (Hartree/Particle)
 Thermal correction to Energy=                    0.236685
 Thermal correction to Enthalpy=                  0.237629
 Thermal correction to Gibbs Free Energy=         0.176523
 Sum of electronic and zero-point Energies=           -802.186151
 Sum of electronic and thermal Energies=              -802.170465
 Sum of electronic and thermal Enthalpies=            -802.169521
 Sum of electronic and thermal Free Energies=         -802.230626

                     E (Thermal)             CV                S
                      KCal/Mol        Cal/Mol-Kelvin    Cal/Mol-Kelvin
 Total                  148.522             57.608            128.607
 Electronic               0.000              0.000              0.000
 Translational            0.889              2.981             42.123
 Rotational               0.889              2.981             33.347
 Vibrational            146.744             51.646             53.137
 Vibration     1          0.593              1.985              6.515
 Vibration     2          0.595              1.977              4.773
 Vibration     3          0.598              1.970              4.229
 Vibration     4          0.598              1.968              4.114
 Vibration     5          0.601              1.958              3.710
 Vibration     6          0.610              1.929              3.033
 Vibration     7          0.621              1.893              2.563
 Vibration     8          0.630              1.865              2.310
 Vibration     9          0.640              1.833              2.087
 Vibration    10          0.649              1.804              1.923
 Vibration    11          0.664              1.759              1.715
 Vibration    12          0.665              1.754              1.695
 Vibration    13          0.689              1.684              1.448
 Vibration    14          0.697              1.662              1.382
 Vibration    15          0.703              1.643              1.330
 Vibration    16          0.743              1.532              1.076
 Vibration    17          0.753              1.505              1.024
 Vibration    18          0.760              1.487              0.992
 Vibration    19          0.806              1.367              0.804
 Vibration    20          0.858              1.244              0.651
 Vibration    21          0.870              1.216              0.621
 Vibration    22          0.897              1.157              0.561
 Vibration    23          0.933              1.082              0.492
 Vibration    24          0.957              1.035              0.452
 Vibration    25          0.975              0.999              0.424

 Normal termination of Gaussian 09 at Mon Feb 26 16:03:06 2024.
