 Gaussian 09, Revision E.01,
 Gaussian 09:  ES64L-G09RevE.01 30-Nov-2015

 -----------------------------
 # opt freq 6-311+g(d,p) m062x
 -----------------------------

 ----------
 [No Title]
 ----------
 Symbolic Z-matrix:
 Charge =  1 Multiplicity = 1

 SCF Done:  E(RM062X) =  -802.744452236     A.U. after   16 cycles
 SCF Done:  E(RM062X) =  -802.744597193     A.U. after   11 cycles
 SCF Done:  E(RM062X) =  -802.744604839     A.U. after   10 cycles
 SCF Done:  E(RM062X) =  -802.744605246     A.U. after    9 cycles
 Optimization completed.
    -- Stationary point found.
 Normal termination of Gaussian 09 at Tue Feb 27 12:54:19 2024.

 ----------------------------------------------------------------------
 #N Geom=AllCheck Guess=TCheck SCRF=Check GenChk RM062X/6-311+G(d,p) Fr
 eq
 ----------------------------------------------------------------------

 Structure from the checkpoint file:  "lwm06311SAYang.chk"
 ----------
 [No Title]
 ----------
 Charge =  1 Multiplicity = 1

                         Standard orientation:
 ---------------------------------------------------------------------
 Center     Atomic      Atomic             Coordinates (Angstroms)
 Number     Number       Type             X           Y           Z
 ---------------------------------------------------------------------
      1          6           0        2.391364    0.197750   -0.000409
      2          6           0        1.917740   -1.133172    0.006444
      3          6           0        0.554020   -1.345829    0.010353
      4          6           0       -0.354052   -0.257181    0.007634
      5          6           0        0.131632    1.074137   -0.001196
      6          6           0        1.487289    1.290009   -0.004147
      7          8           0        3.690968    0.407791   -0.004337
      8          8           0        2.870091   -2.071699    0.007649
      9          6           0        2.461632   -3.431589    0.013194
     10          8           0        2.119821    2.481581   -0.012185
     11          6           0        1.327248    3.663587   -0.015898
     12          6           0       -1.730466   -0.557115    0.011049
     13          6           0       -2.786705    0.340160    0.016610
     14          6           0       -4.094723   -0.110843   -0.001331
     15          8           0       -5.064648    0.769022    0.086033
     16          8           0       -4.367269   -1.393470   -0.113264
     17          1           0        0.160011   -2.353689    0.015532
     18          1           0       -0.552403    1.910818   -0.006092
     19          1           0        3.864503    1.361621   -0.009748
     20          1           0        3.377806   -4.014886    0.012913
     21          1           0        1.882416   -3.658659    0.912725
     22          1           0        1.878035   -3.664694   -0.881952
     23          1           0        2.027095    4.494130   -0.020443
     24          1           0        0.704353    3.700427   -0.913170
     25          1           0        0.707135    3.707819    0.882986
     26          1           0       -1.989213   -1.613314    0.008525
     27          1           0       -2.659830    1.412692    0.035019
     28          1           0       -5.945959    0.426468   -0.112012
     29          1           0       -5.275518   -1.634018    0.110735
 ---------------------------------------------------------------------

 SCF Done:  E(RM062X) =  -802.744605246     A.U. after    1 cycles

 The electronic state is 1-A.
 Alpha  occ. eigenvalues --  -19.86011 -19.85887 -19.79325 -19.79220 -19.77222
 Alpha  occ. eigenvalues --  -10.87367 -10.76025 -10.74615 -10.73930 -10.73515
 Alpha  occ. eigenvalues --  -10.70963 -10.70010 -10.69912 -10.69436 -10.69056
 Alpha  occ. eigenvalues --  -10.68845  -1.44613  -1.36237  -1.35495  -1.32557
 Alpha  occ. eigenvalues --   -1.31057  -1.11463  -1.07370  -1.01241  -0.99574
 Alpha  occ. eigenvalues --   -0.94593  -0.93722  -0.90132  -0.88493  -0.86665
 Alpha  occ. eigenvalues --   -0.81979  -0.79583  -0.78282  -0.76104  -0.73992
 Alpha  occ. eigenvalues --   -0.73153  -0.71806  -0.70337  -0.68903  -0.68426
 Alpha  occ. eigenvalues --   -0.67203  -0.66648  -0.64962  -0.63532  -0.62647
 Alpha  occ. eigenvalues --   -0.62415  -0.61946  -0.61351  -0.59657  -0.58549
 Alpha  occ. eigenvalues --   -0.57670  -0.55651  -0.54421  -0.54398  -0.52926
 Alpha  occ. eigenvalues --   -0.52270  -0.48039  -0.41795  -0.38947
 Alpha virt. eigenvalues --   -0.21903  -0.14094  -0.10517  -0.09327  -0.09033
 Alpha virt. eigenvalues --   -0.08909  -0.08105  -0.07463  -0.06286  -0.06130
 Alpha virt. eigenvalues --   -0.05479  -0.04869  -0.04507  -0.04476  -0.03663

 Mulliken charges:
               1
     1  C   -0.762890
     2  C   -0.450658
     3  C    1.140753
     4  C    0.867109
     5  C   -0.441990
     6  C   -0.326990
     7  O   -0.204593
     8  O   -0.104023
     9  C   -0.272137
    10  O   -0.209032
    11  C   -0.268045
    12  C   -0.075871
    13  C   -0.596950
    14  C    0.210620
    15  O   -0.151508
    16  O   -0.185989
    17  H    0.185055
    18  H    0.171644
    19  H    0.326660
    20  H    0.210189
    21  H    0.174750
    22  H    0.175463
    23  H    0.209013
    24  H    0.181588
    25  H    0.181387
    26  H    0.211287
    27  H    0.201110
    28  H    0.301175
    29  H    0.302874
 Sum of Mulliken charges =   1.00000

 Dipole moment (field-independent basis, Debye):
    X=            -10.6880    Y=             -0.1849    Z=              0.0409  Tot=             10.6896
 Quadrupole moment (field-independent basis, Debye-Ang):
   XX=             -9.8646   YY=            -56.9233   ZZ=            -94.7156
   XY=             11.8944   XZ=              0.0726   YZ=             -1.1234

  Exact polarizability: 330.881   7.057 162.396  -0.212   0.145  80.252
 Approx polarizability: 402.944  11.954 188.213  -0.455   0.573 107.564

                      1                      2                      3
                      A                      A                      A
 Frequencies --     44.7124                57.1685                59.9357
 Red. masses --      4.5744                 4.1686                 5.2072
 Frc consts  --      0.0054                 0.0080                 0.0110
 IR Inten    --      1.5780                 3.1513                 5.0563

                      4                      5                      6
                      A                      A                      A
 Frequencies --     75.3695                99.1973               138.5800
 Red. masses --      5.1241                 3.6633                 5.8398
 Frc consts  --      0.0171                 0.0212                 0.0661
 IR Inten    --      0.7541                 0.5818                 1.5969

                      7                      8                      9
                      A                      A                      A
 Frequencies --    174.0812               179.2018               203.6842
 Red. masses --      3.6787                 3.8850                 3.9164
 Frc consts  --      0.0657                 0.0735                 0.0957
 IR Inten    --     27.0745                 1.0457                23.1556

                     10                     11                     12
                      A                      A                      A
 Frequencies --    212.6686               254.2397               256.0271
 Red. masses --      1.8678                 2.3454                 1.8569
 Frc consts  --      0.0498                 0.0893                 0.0717
 IR Inten    --      1.2103                83.7235                57.9158

                     13                     14                     15
                      A                      A                      A
 Frequencies --    275.5852               300.5850               318.1563
 Red. masses --      1.2172                 1.4101                 6.0654
 Frc consts  --      0.0545                 0.0751                 0.3617
 IR Inten    --     10.4482                37.4116                11.1547

                     16                     17                     18
                      A                      A                      A
 Frequencies --    341.2694               365.8701               385.4786
 Red. masses --      2.5714                 4.4217                 4.5715
 Frc consts  --      0.1764                 0.3487                 0.4002
 IR Inten    --     36.6540                 3.2948                 1.5702

                     19                     20                     21
                      A                      A                      A
 Frequencies --    415.7156               440.2501               501.9246
 Red. masses --      2.8874                 1.1853                 6.0745
 Frc consts  --      0.2940                 0.1354                 0.9017
 IR Inten    --     15.4110               258.3107                21.9964

                     22                     23                     24
                      A                      A                      A
 Frequencies --    530.3444               535.1932               552.7051
 Red. masses --      6.6915                 5.0548                 1.5321
 Frc consts  --      1.1089                 0.8531                 0.2758
 IR Inten    --      4.6087                28.6312                66.9854

                     25                     26                     27
                      A                      A                      A
 Frequencies --    578.4196               593.4270               599.3878
 Red. masses --      3.8295                 2.1275                 3.7776
 Frc consts  --      0.7549                 0.4414                 0.7996
 IR Inten    --     10.8206                41.0185                16.2697

                     28                     29                     30
                      A                      A                      A
 Frequencies --    678.7515               711.1118               721.5402
 Red. masses --      4.1638                 5.0178                 5.0440
 Frc consts  --      1.1302                 1.4950                 1.5472
 IR Inten    --      0.4955                13.1885                44.7877

                     31                     32                     33
                      A                      A                      A
 Frequencies --    740.7893               841.6748               845.4210
 Red. masses --     11.4010                 1.5446                 5.4234
 Frc consts  --      3.6862                 0.6447                 2.2839
 IR Inten    --      0.0314                 4.6142                 2.9244

                     34                     35                     36
                      A                      A                      A
 Frequencies --    858.5152               871.5497               961.7869
 Red. masses --      1.3364                 1.5075                 4.9112
 Frc consts  --      0.5803                 0.6747                 2.6767
 IR Inten    --     34.8008                39.5797                 0.0910

                     37                     38                     39
                      A                      A                      A
 Frequencies --   1007.4574              1013.4916              1034.8121
 Red. masses --      4.1049                 1.3638                 3.5323
 Frc consts  --      2.4548                 0.8254                 2.2286
 IR Inten    --    264.0951                22.1552                23.2004

                     40                     41                     42
                      A                      A                      A
 Frequencies --   1097.9474              1150.9804              1170.1204
 Red. masses --      5.2061                 1.1377                 1.6733
 Frc consts  --      3.6976                 0.8880                 1.3498
 IR Inten    --      0.8063               140.3260              2217.6328

                     43                     44                     45
                      A                      A                      A
 Frequencies --   1179.7001              1182.9475              1189.4844
 Red. masses --      2.6387                 1.2775                 1.2705
 Frc consts  --      2.1637                 1.0533                 1.0591
 IR Inten    --    225.2660                 1.2561                 0.9936

                     46                     47                     48
                      A                      A                      A
 Frequencies --   1212.5913              1219.2734              1237.3631
 Red. masses --      1.4374                 1.3627                 1.6214
 Frc consts  --      1.2453                 1.1936                 1.4626
 IR Inten    --      2.7988                 3.0801                30.2607

                     49                     50                     51
                      A                      A                      A
 Frequencies --   1271.1759              1292.0193              1311.8952
 Red. masses --      2.0135                 1.5953                 1.8396
 Frc consts  --      1.9170                 1.5691                 1.8654
 IR Inten    --    285.8891               131.4300               274.7642

                     52                     53                     54
                      A                      A                      A
 Frequencies --   1337.2804              1364.9752              1407.6342
 Red. masses --      1.4942                 3.6849                 3.0749
 Frc consts  --      1.5744                 4.0451                 3.5897
 IR Inten    --     28.5924                91.6420               765.7962

                     55                     56                     57
                      A                      A                      A
 Frequencies --   1428.7288              1483.6676              1491.2161
 Red. masses --      4.1431                 1.2716                 1.4768
 Frc consts  --      4.9828                 1.6492                 1.9349
 IR Inten    --    914.6526                34.6707                84.3307

                     58                     59                     60
                      A                      A                      A
 Frequencies --   1504.0961              1509.0434              1509.4444
 Red. masses --      3.2677                 1.0417                 1.0622
 Frc consts  --      4.3556                 1.3977                 1.4259
 IR Inten    --    908.2176                15.4978                89.0751

                     61                     62                     63
                      A                      A                      A
 Frequencies --   1512.9382              1513.5526              1533.6332
 Red. masses --      1.0434                 1.0776                 4.6641
 Frc consts  --      1.4072                 1.4544                 6.4634
 IR Inten    --     15.5025                23.3453               355.2401

                     64                     65                     66
                      A                      A                      A
 Frequencies --   1557.1944              1631.2193              1634.7727
 Red. masses --      5.2969                 5.0487                 4.5716
 Frc consts  --      7.5676                 7.9151                 7.1984
 IR Inten    --    747.8834               152.5842              1075.9001

                     67                     68                     69
                      A                      A                      A
 Frequencies --   1654.0147              1684.5423              3050.7190
 Red. masses --      5.4181                 5.7828                 1.0347
 Frc consts  --      8.7332                 9.6684                 5.6740
 IR Inten    --    123.2976               467.5209                22.1683

                     70                     71                     72
                      A                      A                      A
 Frequencies --   3063.0890              3123.3134              3143.2501
 Red. masses --      1.0318                 1.1074                 1.1078
 Frc consts  --      5.7036                 6.3645                 6.4486
 IR Inten    --     16.1380                17.6217                13.5622

                     73                     74                     75
                      A                      A                      A
 Frequencies --   3186.5835              3196.4029              3199.5941
 Red. masses --      1.1049                 1.1012                 1.0905
 Frc consts  --      6.6106                 6.6288                 6.5778
 IR Inten    --      2.2705                 3.4997                 1.0010

                     76                     77                     78
                      A                      A                      A
 Frequencies --   3217.8509              3233.7456              3248.9367
 Red. masses --      1.0916                 1.0919                 1.0907
 Frc consts  --      6.6596                 6.7275                 6.7832
 IR Inten    --      1.6968                 2.2255                 2.8763

                     79                     80                     81
                      A                      A                      A
 Frequencies --   3783.1232              3836.4365              3849.4994
 Red. masses --      1.0651                 1.0678                 1.0664
 Frc consts  --      8.9815                 9.2597                 9.3110
 IR Inten    --    420.0243               157.3299               736.5602

 - Thermochemistry -
 -------------------
 Temperature   298.150 Kelvin.  Pressure   1.00000 Atm.
 Atom     1 has atomic number  6 and mass  12.00000

 Molecular mass:   225.07630 amu.
 Principal axes and moments of inertia in atomic units:
                           1         2         3
     Eigenvalues --  2512.990376511.217858998.38042
           X            0.99999  -0.00320  -0.00007
           Y            0.00320   0.99999  -0.00086
           Z            0.00007   0.00086   1.00000
 This molecule is an asymmetric top.
 Rotational symmetry number  1.
 Warning -- assumption of classical behavior for rotation
           may cause significant error
 Rotational temperatures (Kelvin)      0.03447     0.01330     0.00963
 Rotational constants (GHZ):           0.71816     0.27717     0.20056
 Zero-point vibrational energy     611184.5 (Joules/Mol)
                                  146.07661 (Kcal/Mol)
 Warning -- explicit consideration of  27 degrees of freedom as
           vibrations may cause significant error
 Vibrational temperatures:     64.33    82.25    86.23   108.44   142.72
          (Kelvin)            199.39   250.46   257.83   293.06   305.98
                              365.79   368.37   396.51   432.47   457.76
                              491.01   526.40   554.62   598.12   633.42
                              722.16   763.05   770.02   795.22   832.22
                              853.81   862.38   976.57  1023.13  1038.13
                             1065.83  1210.98  1216.37  1235.21  1253.96
                             1383.80  1449.50  1458.19  1488.86  1579.70
                             1656.00  1683.54  1697.32  1702.00  1711.40
                             1744.65  1754.26  1780.29  1828.94  1858.93
                             1887.52  1924.05  1963.89  2025.27  2055.62
                             2134.66  2145.52  2164.06  2171.17  2171.75
                             2176.78  2177.66  2206.55  2240.45  2346.96
                             2352.07  2379.76  2423.68  4389.30  4407.10
                             4493.75  4522.43  4584.78  4598.91  4603.50
                             4629.76  4652.63  4674.49  5443.06  5519.77
                             5538.56

 Zero-point correction=                           0.232788 (Hartree/Particle)
 Thermal correction to Energy=                    0.248834
 Thermal correction to Enthalpy=                  0.249779
 Thermal correction to Gibbs Free Energy=         0.188922
 Sum of electronic and zero-point Energies=           -802.511817
 Sum of electronic and thermal Energies=              -802.495771
 Sum of electronic and thermal Enthalpies=            -802.494827
 Sum of electronic and thermal Free Energies=         -802.555683

                     E (Thermal)             CV                S
                      KCal/Mol        Cal/Mol-Kelvin    Cal/Mol-Kelvin
 Total                  156.146             59.671            128.083
 Electronic               0.000              0.000              0.000
 Translational            0.889              2.981             42.136
 Rotational               0.889              2.981             33.354
 Vibrational            154.368             53.710             52.593
 Vibration     1          0.595              1.980              5.039
 Vibration     2          0.596              1.975              4.553
 Vibration     3          0.597              1.973              4.459
 Vibration     4          0.599              1.965              4.008
 Vibration     5          0.604              1.950              3.470
 Vibration     6          0.614              1.915              2.823
 Vibration     7          0.627              1.874              2.391
 Vibration     8          0.629              1.868              2.337
 Vibration     9          0.639              1.835              2.100
 Vibration    10          0.644              1.822              2.021
 Vibration    11          0.665              1.756              1.701
 Vibration    12          0.666              1.753              1.689
 Vibration    13          0.677              1.719              1.561
 Vibration    14          0.693              1.673              1.414
 Vibration    15          0.705              1.639              1.320
 Vibration    16          0.721              1.593              1.206
 Vibration    17          0.739              1.542              1.097
 Vibration    18          0.754              1.501              1.018
 Vibration    19          0.779              1.436              0.907
 Vibration    20          0.800              1.382              0.826
 Vibration    21          0.857              1.246              0.653
 Vibration    22          0.885              1.183              0.586
 Vibration    23          0.890              1.172              0.576
 Vibration    24          0.908              1.134              0.539
 Vibration    25          0.935              1.078              0.488
 Vibration    26          0.951              1.046              0.461
 Vibration    27          0.957              1.033              0.451

 Normal termination of Gaussian 09 at Tue Feb 27 13:01:20 2024.
