 Gaussian 09, Revision E.01,
 Gaussian 09:  ES64L-G09RevE.01 30-Nov-2015

 ------------------------
 # opt freq m062x/cc-pvtz
 ------------------------

 ----------
 [No Title]
 ----------
 Symbolic Z-matrix:
 Charge =  0 Multiplicity = 1

 SCF Done:  E(RM062X) =  -687.952335512     A.U. after   17 cycles
 SCF Done:  E(RM062X) =  -687.953078831     A.U. after   12 cycles
 SCF Done:  E(RM062X) =  -687.953095290     A.U. after   10 cycles
 SCF Done:  E(RM062X) =  -687.953095292     A.U. after    9 cycles
 SCF Done:  E(RM062X) =  -687.953095450     A.U. after    9 cycles
 SCF Done:  E(RM062X) =  -687.953096656     A.U. after    8 cycles
 SCF Done:  E(RM062X) =  -687.953096878     A.U. after    7 cycles
 SCF Done:  E(RM062X) =  -687.952982104     A.U. after   14 cycles
 SCF Done:  E(RM062X) =  -687.953097183     A.U. after    9 cycles
 SCF Done:  E(RM062X) =  -687.953101811     A.U. after   12 cycles
 SCF Done:  E(RM062X) =  -687.953441798     A.U. after   10 cycles
 SCF Done:  E(RM062X) =  -687.953563105     A.U. after   11 cycles
 SCF Done:  E(RM062X) =  -687.953598435     A.U. after   14 cycles
 SCF Done:  E(RM062X) =  -687.953607330     A.U. after   11 cycles
 SCF Done:  E(RM062X) =  -687.953613699     A.U. after   12 cycles
 SCF Done:  E(RM062X) =  -687.953615807     A.U. after   11 cycles
 SCF Done:  E(RM062X) =  -687.953617126     A.U. after   11 cycles
 SCF Done:  E(RM062X) =  -687.953618284     A.U. after   11 cycles
 SCF Done:  E(RM062X) =  -687.953618366     A.U. after    7 cycles
 Optimization completed.
    -- Stationary point found.
 Normal termination of Gaussian 09 at Thu Dec 19 19:21:12 2024.

 -------------------------------------------------------------------
 #N Geom=AllCheck Guess=TCheck SCRF=Check GenChk RM062X/CC-pVTZ Freq
 -------------------------------------------------------------------

 Structure from the checkpoint file:  "ccpvTZFA.chk"
 ----------
 [No Title]
 ----------
 Charge =  0 Multiplicity = 1

                         Standard orientation:
 ---------------------------------------------------------------------
 Center     Atomic      Atomic             Coordinates (Angstroms)
 Number     Number       Type             X           Y           Z
 ---------------------------------------------------------------------
      1          6           0        1.465476   -1.998703   -0.109326
      2          6           0        2.484427   -1.066074   -0.034809
      3          6           0        2.172075    0.299226    0.024321
      4          6           0        0.853803    0.706483    0.009546
      5          6           0       -0.182044   -0.235485   -0.058066
      6          6           0        0.143284   -1.587115   -0.121199
      7          8           0        3.772712   -1.467825   -0.024437
      8          6           0       -1.561128    0.250400   -0.061955
      9          6           0       -2.673413   -0.481526    0.022493
     10          8           0        3.260519    1.116214    0.091605
     11          6           0        3.029136    2.508325    0.151148
     12          6           0       -4.047216    0.073957    0.065524
     13          8           0       -4.972945   -0.535943    0.514887
     14          8           0       -4.229636    1.323900   -0.420392
     15          1           0        1.729918   -3.045397   -0.161104
     16          1           0        0.607575    1.758197    0.056436
     17          1           0       -0.637501   -2.331009   -0.190915
     18          1           0        4.331685   -0.683243    0.029271
     19          1           0       -1.650084    1.333743   -0.104893
     20          1           0       -2.644202   -1.554368    0.151726
     21          1           0        4.005540    2.980101    0.201506
     22          1           0        2.501925    2.853223   -0.740956
     23          1           0        2.451830    2.769512    1.040466
     24          1           0       -3.448292    1.611533   -0.900897
 ---------------------------------------------------------------------

 SCF Done:  E(RM062X) =  -687.953618366     A.U. after    1 cycles

 The electronic state is 1-A.
 Alpha  occ. eigenvalues --  -19.68570 -19.66628 -19.66605 -19.60585 -10.67285
 Alpha  occ. eigenvalues --  -10.62269 -10.62171 -10.61500 -10.58174 -10.56969
 Alpha  occ. eigenvalues --  -10.56673 -10.56251 -10.55947 -10.55616  -1.23142
 Alpha  occ. eigenvalues --   -1.22913  -1.19665  -1.14168  -0.98857  -0.92308
 Alpha  occ. eigenvalues --   -0.87645  -0.86037  -0.81632  -0.75697  -0.71720
 Alpha  occ. eigenvalues --   -0.70437  -0.67906  -0.65902  -0.62688  -0.60370
 Alpha  occ. eigenvalues --   -0.58889  -0.58190  -0.55368  -0.53819  -0.53558
 Alpha  occ. eigenvalues --   -0.52514  -0.51752  -0.51378  -0.50481  -0.47254
 Alpha  occ. eigenvalues --   -0.46942  -0.45243  -0.45054  -0.43742  -0.43066
 Alpha  occ. eigenvalues --   -0.42271  -0.39698  -0.36541  -0.35268  -0.31774
 Alpha  occ. eigenvalues --   -0.27461
 Alpha virt. eigenvalues --   -0.04030   0.01278   0.04420   0.05340   0.05997
 Alpha virt. eigenvalues --    0.07030   0.08100   0.10435   0.10997   0.11824
 Alpha virt. eigenvalues --    0.12527   0.13306   0.14171   0.17617   0.17963

 Mulliken charges:
               1
     1  C   -0.182796
     2  C    0.193356
     3  C    0.165166
     4  C   -0.246298
     5  C    0.089322
     6  C   -0.060166
     7  O   -0.331364
     8  C   -0.156840
     9  C   -0.229344
    10  O   -0.284779
    11  C   -0.174623
    12  C    0.334188
    13  O   -0.323766
    14  O   -0.277421
    15  H    0.123417
    16  H    0.130297
    17  H    0.110103
    18  H    0.271482
    19  H    0.103941
    20  H    0.154534
    21  H    0.130433
    22  H    0.105910
    23  H    0.108163
    24  H    0.247088
 Sum of Mulliken charges =  -0.00000

 Dipole moment (field-independent basis, Debye):
    X=              6.0015    Y=              3.2186    Z=             -1.2301  Tot=              6.9203
 Quadrupole moment (field-independent basis, Debye-Ang):
   XX=           -110.0189   YY=            -71.0237   ZZ=            -83.6653
   XY=              6.6429   XZ=              6.2878   YZ=             -0.1034

  Exact polarizability: 212.423   5.555 132.613  -2.691  -1.408  69.150
 Approx polarizability: 240.353   7.782 172.652  -4.828  -2.905  97.486

                      1                      2                      3
                      A                      A                      A
 Frequencies --     35.6386                67.1187                84.6526
 Red. masses --      5.6140                 6.7081                 5.9683
 Frc consts  --      0.0042                 0.0178                 0.0252
 IR Inten    --      2.9305                 1.3728                 3.7741

                      4                      5                      6
                      A                      A                      A
 Frequencies --     91.8883               129.8399               175.3191
 Red. masses --      3.2599                 3.2872                 4.0815
 Frc consts  --      0.0162                 0.0327                 0.0739
 IR Inten    --      3.3971                 8.4493                 0.9578

                      7                      8                      9
                      A                      A                      A
 Frequencies --    213.8342               228.4086               244.0626
 Red. masses --      3.7680                 4.3108                 2.0575
 Frc consts  --      0.1015                 0.1325                 0.0722
 IR Inten    --      3.6460                 2.8870                 0.8791

                     10                     11                     12
                      A                      A                      A
 Frequencies --    302.3002               318.1040               367.2718
 Red. masses --      1.7965                 5.2992                 4.5048
 Frc consts  --      0.0967                 0.3159                 0.3580
 IR Inten    --      0.8696                 5.6299                 4.7149

                     13                     14                     15
                      A                      A                      A
 Frequencies --    385.7218               461.2337               479.6330
 Red. masses --      4.0658                 1.8056                 1.5114
 Frc consts  --      0.3564                 0.2263                 0.2049
 IR Inten    --      4.1350                48.4615                73.6629

                     16                     17                     18
                      A                      A                      A
 Frequencies --    483.6136               498.2918               530.0700
 Red. masses --      1.4548                 2.4786                 5.4983
 Frc consts  --      0.2005                 0.3626                 0.9102
 IR Inten    --     40.4128                33.3086                 2.9256

                     19                     20                     21
                      A                      A                      A
 Frequencies --    577.8680               589.8033               614.3426
 Red. masses --      4.2637                 6.3843                 3.6931
 Frc consts  --      0.8389                 1.3085                 0.8212
 IR Inten    --     11.1974                19.1507                 9.7506

                     22                     23                     24
                      A                      A                      A
 Frequencies --    663.6507               731.2786               755.3807
 Red. masses --      5.4403                 4.7064                 4.1817
 Frc consts  --      1.4117                 1.4829                 1.4058
 IR Inten    --      3.0431                 1.7512                 1.5548

                     25                     26                     27
                      A                      A                      A
 Frequencies --    792.3253               833.6707               854.9794
 Red. masses --      5.4028                 5.1333                 1.5003
 Frc consts  --      1.9984                 2.1020                 0.6462
 IR Inten    --      6.7117                15.0570                22.4391

                     28                     29                     30
                      A                      A                      A
 Frequencies --    883.4275               919.3522               940.8002
 Red. masses --      1.6410                 2.1482                 4.5281
 Frc consts  --      0.7546                 1.0698                 2.3614
 IR Inten    --     29.1635                14.5175                38.0069

                     31                     32                     33
                      A                      A                      A
 Frequencies --    973.6918               979.5159              1021.7025
 Red. masses --      3.0477                 1.3995                 1.1418
 Frc consts  --      1.7024                 0.7911                 0.7022
 IR Inten    --     10.2777                 1.7882                38.7438

                     34                     35                     36
                      A                      A                      A
 Frequencies --   1095.8278              1159.8376              1192.6291
 Red. masses --      3.5763                 1.4283                 1.2764
 Frc consts  --      2.5303                 1.1321                 1.0696
 IR Inten    --     31.4272                30.9481                 1.1213

                     37                     38                     39
                      A                      A                      A
 Frequencies --   1201.0268              1206.9145              1225.3835
 Red. masses --      1.5560                 1.7118                 1.5285
 Frc consts  --      1.3224                 1.4691                 1.3523
 IR Inten    --     24.5745                40.5876               128.5278

                     40                     41                     42
                      A                      A                      A
 Frequencies --   1239.8419              1268.1849              1306.9362
 Red. masses --      1.3715                 2.1994                 1.8504
 Frc consts  --      1.2421                 2.0841                 1.8622
 IR Inten    --     53.7817                81.0094                26.7117

                     43                     44                     45
                      A                      A                      A
 Frequencies --   1319.0711              1333.8408              1355.6454
 Red. masses --      2.6080                 2.1635                 3.5687
 Frc consts  --      2.6736                 2.2678                 3.8641
 IR Inten    --    234.3892               419.5853               214.1634

                     46                     47                     48
                      A                      A                      A
 Frequencies --   1364.2706              1423.4812              1480.4120
 Red. masses --      1.5444                 2.4367                 2.0743
 Frc consts  --      1.6936                 2.9091                 2.6784
 IR Inten    --     77.0043                75.0613                 9.9389

                     49                     50                     51
                      A                      A                      A
 Frequencies --   1502.5157              1504.9983              1520.9043
 Red. masses --      1.6348                 1.0448                 1.0872
 Frc consts  --      2.1745                 1.3942                 1.4817
 IR Inten    --     18.6488                 9.0827                42.3562

                     52                     53                     54
                      A                      A                      A
 Frequencies --   1580.1921              1670.5552              1685.8229
 Red. masses --      3.8850                 6.1740                 6.7624
 Frc consts  --      5.7156                10.1517                11.3233
 IR Inten    --    300.0636               131.9397                35.8461

                     55                     56                     57
                      A                      A                      A
 Frequencies --   1726.2199              1880.2818              3048.3384
 Red. masses --      6.1378                10.4745                 1.0332
 Frc consts  --     10.7759                21.8188                 5.6565
 IR Inten    --     59.7587               538.1084                32.4280

                     58                     59                     60
                      A                      A                      A
 Frequencies --   3116.1243              3138.2199              3168.2993
 Red. masses --      1.1059                 1.0887                 1.1026
 Frc consts  --      6.3269                 6.3169                 6.5210
 IR Inten    --     22.6500                15.4566                12.5820

                     61                     62                     63
                      A                      A                      A
 Frequencies --   3202.3708              3208.6727              3213.8943
 Red. masses --      1.0895                 1.0902                 1.0903
 Frc consts  --      6.5828                 6.6129                 6.6350
 IR Inten    --      3.8776                 2.6542                 0.3489

                     64                     65                     66
                      A                      A                      A
 Frequencies --   3221.1532              3834.9097              3886.0177
 Red. masses --      1.0946                 1.0648                 1.0654
 Frc consts  --      6.6919                 9.2267                 9.4793
 IR Inten    --      1.8371               168.7503                37.7740

 - Thermochemistry -
 -------------------
 Temperature   298.150 Kelvin.  Pressure   1.00000 Atm.
 Atom     1 has atomic number  6 and mass  12.00000

 Molecular mass:   194.05791 amu.
 Principal axes and moments of inertia in atomic units:
                           1         2         3
     Eigenvalues --  1164.155346250.976087339.69426
           X            0.99993   0.01165   0.00252
           Y           -0.01165   0.99993   0.00187
           Z           -0.00250  -0.00190   1.00000
 This molecule is an asymmetric top.
 Rotational symmetry number  1.
 Warning -- assumption of classical behavior for rotation
           may cause significant error
 Rotational temperatures (Kelvin)      0.07440     0.01386     0.01180
 Rotational constants (GHZ):           1.55026     0.28871     0.24589
 Zero-point vibrational energy     493528.9 (Joules/Mol)
                                  117.95623 (Kcal/Mol)
 Warning -- explicit consideration of  21 degrees of freedom as
           vibrations may cause significant error
 Vibrational temperatures:     51.28    96.57   121.80   132.21   186.81
          (Kelvin)            252.24   307.66   328.63   351.15   434.94
                              457.68   528.42   554.97   663.61   690.08
                              695.81   716.93   762.65   831.42   848.59
                              883.90   954.84  1052.15  1086.82  1139.98
                             1199.46  1230.12  1271.05  1322.74  1353.60
                             1400.92  1409.30  1470.00  1576.65  1668.75
                             1715.93  1728.01  1736.48  1763.05  1783.85
                             1824.63  1880.39  1897.85  1919.10  1950.47
                             1962.88  2048.07  2129.98  2161.78  2165.35
                             2188.24  2273.54  2403.55  2425.52  2483.64
                             2705.30  4385.87  4483.40  4515.19  4558.47
                             4607.49  4616.56  4624.07  4634.52  5517.57
                             5591.11

 Zero-point correction=                           0.187975 (Hartree/Particle)
 Thermal correction to Energy=                    0.200976
 Thermal correction to Enthalpy=                  0.201920
 Thermal correction to Gibbs Free Energy=         0.147531
 Sum of electronic and zero-point Energies=           -687.765643
 Sum of electronic and thermal Energies=              -687.752643
 Sum of electronic and thermal Enthalpies=            -687.751698
 Sum of electronic and thermal Free Energies=         -687.806087

                     E (Thermal)             CV                S
                      KCal/Mol        Cal/Mol-Kelvin    Cal/Mol-Kelvin
 Total                  126.114             48.587            114.470
 Electronic               0.000              0.000              0.000
 Translational            0.889              2.981             41.694
 Rotational               0.889              2.981             32.346
 Vibrational            124.337             42.625             40.430
 Vibration     1          0.594              1.982              5.488
 Vibration     2          0.598              1.970              4.236
 Vibration     3          0.601              1.960              3.780
 Vibration     4          0.602              1.955              3.619
 Vibration     5          0.612              1.923              2.948
 Vibration     6          0.627              1.873              2.378
 Vibration     7          0.644              1.820              2.011
 Vibration     8          0.651              1.798              1.891
 Vibration     9          0.659              1.773              1.773
 Vibration    10          0.694              1.669              1.404
 Vibration    11          0.705              1.639              1.320
 Vibration    12          0.740              1.540              1.091
 Vibration    13          0.754              1.501              1.017
 Vibration    14          0.819              1.336              0.763
 Vibration    15          0.836              1.295              0.711
 Vibration    16          0.840              1.286              0.700
 Vibration    17          0.854              1.254              0.662
 Vibration    18          0.885              1.183              0.587
 Vibration    19          0.934              1.079              0.489
 Vibration    20          0.947              1.054              0.468
 Vibration    21          0.974              1.002              0.426

 Optimization completed.
    -- Stationary point found.
 Normal termination of Gaussian 09 at Thu Dec 19 19:33:39 2024.
