 Gaussian 09, Revision E.01,
 Gaussian 09:  ES64L-G09RevE.01 30-Nov-2015

 ------------------------
 # opt freq m062x/cc-pvtz
 ------------------------

 ----------
 [No Title]
 ----------
 Symbolic Z-matrix:
 Charge =  1 Multiplicity = 1

 SCF Done:  E(RM062X) =  -688.305640128     A.U. after   15 cycles
 SCF Done:  E(RM062X) =  -688.306354371     A.U. after   11 cycles
 SCF Done:  E(RM062X) =  -688.306370151     A.U. after    8 cycles
 SCF Done:  E(RM062X) =  -688.306370503     A.U. after    7 cycles
 SCF Done:  E(RM062X) =  -688.306370763     A.U. after    6 cycles
 Optimization completed.
    -- Stationary point found.
 Normal termination of Gaussian 09 at Thu Dec 19 18:01:56 2024.

 -------------------------------------------------------------------
 #N Geom=AllCheck Guess=TCheck SCRF=Check GenChk RM062X/CC-pVTZ Freq
 -------------------------------------------------------------------

 Structure from the checkpoint file:  "ccpvTZFAyang.chk"
 ----------
 [No Title]
 ----------
 Charge =  1 Multiplicity = 1

                         Standard orientation:
 ---------------------------------------------------------------------
 Center     Atomic      Atomic             Coordinates (Angstroms)
 Number     Number       Type             X           Y           Z
 ---------------------------------------------------------------------
      1          6           0       -1.472195   -2.019212   -0.000036
      2          6           0       -2.503739   -1.079414   -0.000016
      3          6           0       -2.218333    0.309606    0.000000
      4          6           0       -0.915933    0.728580   -0.000001
      5          6           0        0.140247   -0.218957   -0.000019
      6          6           0       -0.168857   -1.594359   -0.000039
      7          8           0       -3.758808   -1.491266   -0.000014
      8          6           0        1.465574    0.260832   -0.000006
      9          6           0        2.624249   -0.484577   -0.000007
     10          6           0        3.866423    0.131925    0.000001
     11          8           0        4.933279   -0.625153    0.000184
     12          8           0        3.972028    1.438945   -0.000180
     13          8           0       -3.322698    1.082524    0.000013
     14          6           0       -3.145474    2.492423    0.000059
     15          1           0       -1.734216   -3.067255   -0.000049
     16          1           0       -0.677886    1.783090    0.000010
     17          1           0        0.622815   -2.329653   -0.000056
     18          1           0       -4.353252   -0.725999    0.000001
     19          1           0        1.581404    1.340265    0.000010
     20          1           0        2.638993   -1.562565   -0.000003
     21          1           0        5.778200   -0.157172   -0.000132
     22          1           0        4.875611    1.778739    0.000371
     23          1           0       -4.140511    2.923439    0.000091
     24          1           0       -2.606655    2.807790    0.894887
     25          1           0       -2.606687    2.807851   -0.894768
 ---------------------------------------------------------------------

 SCF Done:  E(RM062X) =  -688.306370763     A.U. after    1 cycles

 The electronic state is 1-A.
 Alpha  occ. eigenvalues --  -19.86559 -19.86391 -19.79262 -19.79122 -10.87786
 Alpha  occ. eigenvalues --  -10.75880 -10.74046 -10.73580 -10.70707 -10.69948
 Alpha  occ. eigenvalues --  -10.69488 -10.69198 -10.69058 -10.67564  -1.44984
 Alpha  occ. eigenvalues --   -1.36648  -1.34979  -1.31790  -1.11684  -1.07648
 Alpha  occ. eigenvalues --   -1.01156  -0.99635  -0.94561  -0.92023  -0.88817
 Alpha  occ. eigenvalues --   -0.86651  -0.83233  -0.80075  -0.78239  -0.76131
 Alpha  occ. eigenvalues --   -0.73677  -0.72644  -0.71547  -0.69840  -0.68560
 Alpha  occ. eigenvalues --   -0.65698  -0.64923  -0.64262  -0.63439  -0.63203
 Alpha  occ. eigenvalues --   -0.62742  -0.62026  -0.59083  -0.58713  -0.57853
 Alpha  occ. eigenvalues --   -0.54518  -0.54094  -0.53979  -0.49772  -0.43962
 Alpha  occ. eigenvalues --   -0.39821
 Alpha virt. eigenvalues --   -0.21640  -0.11882  -0.10086  -0.09659  -0.05085
 Alpha virt. eigenvalues --   -0.04433  -0.03372  -0.03140  -0.02594  -0.00256
 Alpha virt. eigenvalues --    0.00744   0.03308   0.04062   0.04442   0.04867

 Mulliken charges:
               1
     1  C   -0.174895
     2  C    0.250821
     3  C    0.165985
     4  C   -0.202895
     5  C    0.101384
     6  C   -0.013613
     7  O   -0.272199
     8  C   -0.091654
     9  C   -0.245568
    10  C    0.385082
    11  O   -0.213101
    12  O   -0.221591
    13  O   -0.275433
    14  C   -0.175196
    15  H    0.150608
    16  H    0.149305
    17  H    0.123712
    18  H    0.289787
    19  H    0.155388
    20  H    0.184611
    21  H    0.272593
    22  H    0.274355
    23  H    0.151184
    24  H    0.115664
    25  H    0.115667
 Sum of Mulliken charges =   1.00000

 Dipole moment (field-independent basis, Debye):
    X=              8.5133    Y=              3.4622    Z=              0.0005  Tot=              9.1904
 Quadrupole moment (field-independent basis, Debye-Ang):
   XX=             10.9457   YY=            -61.5132   ZZ=            -82.4738
   XY=              3.2725   XZ=              0.0014   YZ=              0.0025

  Exact polarizability: 300.404  17.125 131.241   0.001   0.001  64.657
 Approx polarizability: 346.256  30.298 169.701   0.001  -0.000  90.925

                      1                      2                      3
                      A                      A                      A
 Frequencies --      9.3593                61.5398                88.7597
 Red. masses --      5.5206                 5.7804                 5.2679
 Frc consts  --      0.0003                 0.0129                 0.0245
 IR Inten    --      2.5217                 1.7740                 1.1544

                      4                      5                      6
                      A                      A                      A
 Frequencies --     90.6412               113.5146               158.2565
 Red. masses --      1.6382                 2.3771                 4.7463
 Frc consts  --      0.0079                 0.0180                 0.0700
 IR Inten    --      1.7962                12.0201                 0.3098

                      7                      8                      9
                      A                      A                      A
 Frequencies --    206.3903               208.5335               233.4876
 Red. masses --      1.9353                 4.0072                 6.9016
 Frc consts  --      0.0486                 0.1027                 0.2217
 IR Inten    --      1.7079                 7.6839                 5.8078

                     10                     11                     12
                      A                      A                      A
 Frequencies --    267.6710               317.8116               333.8367
 Red. masses --      1.3220                 5.9846                 3.0842
 Frc consts  --      0.0558                 0.3561                 0.2025
 IR Inten    --      0.6974                 0.1908                 0.2971

                     13                     14                     15
                      A                      A                      A
 Frequencies --    367.2999               378.5525               448.9231
 Red. masses --      4.6838                 2.3527                 1.1784
 Frc consts  --      0.3723                 0.1986                 0.1399
 IR Inten    --     10.2480                 0.0493               245.3497

                     16                     17                     18
                      A                      A                      A
 Frequencies --    471.6568               502.8675               533.2101
 Red. masses --      3.2465                 5.7200                 5.5597
 Frc consts  --      0.4255                 0.8522                 0.9313
 IR Inten    --      1.5405                24.4139                22.9808

                     19                     20                     21
                      A                      A                      A
 Frequencies --    575.1779               580.0282               590.3757
 Red. masses --      5.3077                 1.1912                 4.0019
 Frc consts  --      1.0346                 0.2361                 0.8218
 IR Inten    --     68.4977               118.0682                 2.7043

                     22                     23                     24
                      A                      A                      A
 Frequencies --    607.5641               644.2754               727.2644
 Red. masses --      2.6202                 4.4986                 5.3122
 Frc consts  --      0.5699                 1.1002                 1.6554
 IR Inten    --      1.4898                 3.7664                 0.0010

                     25                     26                     27
                      A                      A                      A
 Frequencies --    762.8619               790.9621               841.2648
 Red. masses --      4.8393                 5.5293                 5.2486
 Frc consts  --      1.6593                 2.0381                 2.1886
 IR Inten    --      0.8456                16.0176                 2.1870

                     28                     29                     30
                      A                      A                      A
 Frequencies --    853.8204               882.6149               905.7643
 Red. masses --      1.5799                 1.6104                 1.4000
 Frc consts  --      0.6786                 0.7391                 0.6767
 IR Inten    --     15.0327                58.4248                11.4174

                     31                     32                     33
                      A                      A                      A
 Frequencies --    975.5859               992.5933              1014.3082
 Red. masses --      3.3150                 1.3302                 5.1105
 Frc consts  --      1.8589                 0.7722                 3.0978
 IR Inten    --     71.2897                 3.4835               112.0870

                     34                     35                     36
                      A                      A                      A
 Frequencies --   1025.9452              1080.2960              1146.9661
 Red. masses --      1.3468                 3.9478                 1.1104
 Frc consts  --      0.8352                 2.7145                 0.8607
 IR Inten    --     18.9637                47.1790               145.6975

                     37                     38                     39
                      A                      A                      A
 Frequencies --   1156.5596              1177.2646              1192.6482
 Red. masses --      1.4983                 1.6022                 1.2740
 Frc consts  --      1.1808                 1.3083                 1.0677
 IR Inten    --    452.0229              2109.3343                 1.0598

                     40                     41                     42
                      A                      A                      A
 Frequencies --   1212.4953              1236.4211              1244.3125
 Red. masses --      1.4458                 1.2868                 1.4622
 Frc consts  --      1.2523                 1.1590                 1.3339
 IR Inten    --     22.4395                50.2121                42.0620

                     43                     44                     45
                      A                      A                      A
 Frequencies --   1288.6163              1312.8535              1348.3897
 Red. masses --      2.0505                 1.8655                 1.7116
 Frc consts  --      2.0061                 1.8944                 1.8335
 IR Inten    --     43.9861               133.1612               182.8461

                     46                     47                     48
                      A                      A                      A
 Frequencies --   1353.8417              1383.5422              1440.3915
 Red. masses --      1.9542                 4.0916                 3.0188
 Frc consts  --      2.1104                 4.6146                 3.6901
 IR Inten    --    213.2540               405.6772               374.8197

                     49                     50                     51
                      A                      A                      A
 Frequencies --   1486.0006              1498.1517              1507.1099
 Red. masses --      2.5537                 1.5746                 1.0412
 Frc consts  --      3.3225                 2.0822                 1.3934
 IR Inten    --    152.3235               121.1657                12.2896

                     52                     53                     54
                      A                      A                      A
 Frequencies --   1517.0404              1526.9637              1578.1197
 Red. masses --      1.1561                 4.3125                 4.1024
 Frc consts  --      1.5676                 5.9243                 6.0196
 IR Inten    --     78.9126               281.3600              1370.3835

                     55                     56                     57
                      A                      A                      A
 Frequencies --   1622.4165              1639.6120              1647.4129
 Red. masses --      4.0858                 4.5149                 5.3904
 Frc consts  --      6.3366                 7.1512                 8.6194
 IR Inten    --   1313.7698                20.9164               267.2299

                     58                     59                     60
                      A                      A                      A
 Frequencies --   1695.5499              3056.2418              3131.9980
 Red. masses --      5.8566                 1.0323                 1.1071
 Frc consts  --      9.9201                 5.6810                 6.3984
 IR Inten    --    238.8214                17.0578                14.2725

                     61                     62                     63
                      A                      A                      A
 Frequencies --   3181.2958              3182.2392              3202.2421
 Red. masses --      1.0902                 1.1041                 1.0910
 Frc consts  --      6.5009                 6.5878                 6.5914
 IR Inten    --      0.2221                 3.2726                 0.0841

                     64                     65                     66
                      A                      A                      A
 Frequencies --   3221.8805              3237.4467              3239.9914
 Red. masses --      1.0912                 1.0938                 1.0923
 Frc consts  --      6.6738                 6.7547                 6.7560
 IR Inten    --      1.9298                 0.2081                 7.4242

                     67                     68                     69
                      A                      A                      A
 Frequencies --   3779.5707              3818.9811              3833.8096
 Red. masses --      1.0648                 1.0679                 1.0662
 Frc consts  --      8.9618                 9.1767                 9.2336
 IR Inten    --    401.4626               128.6673               751.7558

 - Thermochemistry -
 -------------------
 Temperature   298.150 Kelvin.  Pressure   1.00000 Atm.
 Atom     1 has atomic number  6 and mass  12.00000

 Molecular mass:   195.06573 amu.
 Principal axes and moments of inertia in atomic units:
                           1         2         3
     Eigenvalues --  1162.570596229.860127380.90357
           X            0.99994  -0.01060  -0.00000
           Y            0.01060   0.99994   0.00000
           Z            0.00000  -0.00000   1.00000
 This molecule is an asymmetric top.
 Rotational symmetry number  1.
 Warning -- assumption of classical behavior for rotation
           may cause significant error
 Rotational temperatures (Kelvin)      0.07450     0.01390     0.01173
 Rotational constants (GHZ):           1.55237     0.28969     0.24451
 Zero-point vibrational energy     524810.1 (Joules/Mol)
                                  125.43261 (Kcal/Mol)
 Warning -- explicit consideration of  22 degrees of freedom as
           vibrations may cause significant error
 Vibrational temperatures:     13.47    88.54   127.71   130.41   163.32
          (Kelvin)            227.70   296.95   300.03   335.94   385.12
                              457.26   480.32   528.46   544.65   645.90
                              678.61   723.51   767.17   827.55   834.53
                              849.42   874.15   926.97  1046.37  1097.59
                             1138.02  1210.39  1228.46  1269.88  1303.19
                             1403.65  1428.12  1459.36  1476.10  1554.30
                             1650.23  1664.03  1693.82  1715.95  1744.51
                             1778.93  1790.29  1854.03  1888.90  1940.03
                             1947.87  1990.61  2072.40  2138.02  2155.50
                             2168.39  2182.68  2196.96  2270.56  2334.29
                             2359.03  2370.26  2439.52  4397.24  4506.24
                             4577.17  4578.53  4607.31  4635.56  4657.96
                             4661.62  5437.95  5494.66  5515.99

 Zero-point correction=                           0.199890 (Hartree/Particle)
 Thermal correction to Energy=                    0.213464
 Thermal correction to Enthalpy=                  0.214408
 Thermal correction to Gibbs Free Energy=         0.157697
 Sum of electronic and zero-point Energies=           -688.106481
 Sum of electronic and thermal Energies=              -688.092907
 Sum of electronic and thermal Enthalpies=            -688.091962
 Sum of electronic and thermal Free Energies=         -688.148674

                     E (Thermal)             CV                S
                      KCal/Mol        Cal/Mol-Kelvin    Cal/Mol-Kelvin
 Total                  133.951             50.349            119.359
 Electronic               0.000              0.000              0.000
 Translational            0.889              2.981             41.710
 Rotational               0.889              2.981             32.347
 Vibrational            132.173             44.388             45.302
 Vibration     1          0.593              1.987              8.143
 Vibration     2          0.597              1.973              4.407
 Vibration     3          0.602              1.957              3.687
 Vibration     4          0.602              1.956              3.646
 Vibration     5          0.607              1.938              3.208
 Vibration     6          0.621              1.893              2.571
 Vibration     7          0.641              1.831              2.075
 Vibration     8          0.642              1.828              2.056
 Vibration     9          0.654              1.790              1.852
 Vibration    10          0.673              1.733              1.611
 Vibration    11          0.704              1.640              1.321
 Vibration    12          0.715              1.608              1.241
 Vibration    13          0.740              1.539              1.091
 Vibration    14          0.749              1.516              1.045
 Vibration    15          0.808              1.363              0.799
 Vibration    16          0.829              1.313              0.733
 Vibration    17          0.858              1.244              0.651
 Vibration    18          0.888              1.177              0.580
 Vibration    19          0.932              1.085              0.494
 Vibration    20          0.937              1.074              0.485
 Vibration    21          0.948              1.052              0.467
 Vibration    22          0.966              1.016              0.437

 Normal termination of Gaussian 09 at Thu Dec 19 18:14:48 2024.
